# LAMMPS data file written by OVITO Pro 3.5.4
1091 atoms
4 atom types
0.0 93.0567017 xlo xhi
0.0 17.3027992 ylo yhi
0.0 14.9846002 zlo zhi

Masses

1 196.966569  # Au
2 12.01115  # C
3 32.065  # S
4 1.00794  # H

Atoms  # full

1 1 1 0.0 0.1764030259 17.2998984555 3.3553908443
2 1 1 0.0 0.1764149018 17.2998984499 8.3502564537
3 1 1 0.0 0.1764108218 17.2998986263 13.3451207676
4 1 1 0.0 0.1764068718 1.4390043802 0.8579564214
5 1 1 0.0 0.1764108508 1.4390044573 5.8528255776
6 1 1 0.0 0.176418711 1.4390042684 10.8476887769
7 1 1 0.0 0.1764173576 2.8809086229 3.3553959419
8 1 1 0.0 0.1764286943 2.8809084 8.3502616557
9 1 1 0.0 0.1764250626 2.8809081299 13.3451259771
10 1 1 0.0 0.1764366532 4.3228102365 0.8579670339
11 1 1 0.0 0.1764398337 4.3228106226 5.8528360927
12 1 1 0.0 0.176447076 4.3228099734 10.8476996131
13 1 1 0.0 0.1764545421 5.7647098092 3.3554089726
14 1 1 0.0 0.1764639691 5.7647095754 8.3502749979
15 1 1 0.0 0.1764612416 5.7647091851 13.3451394983
16 1 1 0.0 0.1764712325 7.2066062275 0.8579793737
17 1 1 0.0 0.1764736265 7.2066065399 5.8528482427
18 1 1 0.0 0.176479776 7.2066060918 10.847712258
19 1 1 0.0 0.1764774245 8.6485014803 3.3554169238
20 1 1 0.0 0.1764854689 8.6485014977 8.3502831555
21 1 1 0.0 0.1764832363 8.6485013378 13.345147811
22 1 1 0.0 0.1764760013 10.0903962034 0.8579810965
23 1 1 0.0 0.1764783764 10.0903961657 5.8528498769
24 1 1 0.0 0.1764840568 10.0903963395 10.8477140062
25 1 1 0.0 0.1764630339 11.5322918332 3.3554118239
26 1 1 0.0 0.1764716173 11.5322920784 8.3502779198
27 1 1 0.0 0.1764689622 11.5322923149 13.345142567
28 1 1 0.0 0.1764461581 12.9741900915 0.8579704672
29 1 1 0.0 0.1764492837 12.9741896934 5.8528393254
30 1 1 0.0 0.1764556118 12.9741903713 10.8477031114
31 1 1 0.0 0.1764258242 14.4160903846 3.355398787
32 1 1 0.0 0.176436302 14.4160906195 8.3502645625
33 1 1 0.0 0.1764327481 14.4160910513 13.3451290284
34 1 1 0.0 0.1764116247 15.8579938741 0.8579581273
35 1 1 0.0 0.1764155659 15.8579935102 5.8528271958
36 1 1 0.0 0.1764229424 15.8579940039 10.8476905147
37 1 1 0.0 2.5241805368 17.2998731466 0.0255285663
38 1 1 0.0 2.5241812004 17.2998728273 5.0203972858
39 1 1 0.0 2.5241931883 17.2998729798 10.0152602429
40 1 1 0.0 2.5241795832 1.4389767637 2.5229650368
41 1 1 0.0 2.5241921055 1.4389767694 7.5178300548
42 1 1 0.0 2.5241915707 1.4389765356 12.5126947356
43 1 1 0.0 2.5241963777 2.8808787052 0.0255352528
44 1 1 0.0 2.5241968301 2.8808794026 5.0204039864
45 1 1 0.0 2.5242084273 2.8808788586 10.0152671304
46 1 1 0.0 2.5242126851 4.3227802066 2.5229787146
47 1 1 0.0 2.5242237676 4.3227805056 7.5178440435
48 1 1 0.0 2.5242234405 4.3227794826 12.5127088911
49 1 1 0.0 2.5242373603 5.7646791336 0.0255526543
50 1 1 0.0 2.5242376738 5.7646801775 5.0204210971
51 1 1 0.0 2.5242473845 5.7646795086 10.0152848792
52 1 1 0.0 2.5242515826 7.206577758 2.5229946525
53 1 1 0.0 2.5242606316 7.2065780629 7.5178602892
54 1 1 0.0 2.5242602853 7.2065772933 12.5127254437
55 1 1 0.0 2.5242625412 8.6484746964 0.0255633572
56 1 1 0.0 2.5242629559 8.6484750123 5.0204315603
57 1 1 0.0 2.5242711181 8.6484748917 10.0152957805
58 1 1 0.0 2.5242572133 10.090371734 2.522996835
59 1 1 0.0 2.5242657826 10.0903717322 7.5178624842
60 1 1 0.0 2.5242652517 10.0903719933 12.5127278166
61 1 1 0.0 2.5242466256 11.5322696899 0.0255566292
62 1 1 0.0 2.5242472443 11.532268929 5.0204248018
63 1 1 0.0 2.5242558326 11.532269519 10.0152888672
64 1 1 0.0 2.524223916 12.9741680018 2.5229830681
65 1 1 0.0 2.5242340467 12.974167741 7.5178484311
66 1 1 0.0 2.5242333355 12.9741687873 12.5127135916
67 1 1 0.0 2.5242055675 14.416068962 0.0255391999
68 1 1 0.0 2.5242063261 14.4160679317 5.020407653
69 1 1 0.0 2.5242169008 14.4160686496 10.0152710918
70 1 1 0.0 2.5241851223 15.8579702114 2.5229671818
71 1 1 0.0 2.5241972295 15.8579699374 7.5178322396
72 1 1 0.0 2.5241965426 15.8579707101 12.5126970657
73 1 1 0.0 4.8875108666 17.3210971773 1.7039776708
74 1 1 0.0 4.9441284988 17.4104764374 6.7196316668
75 1 1 0.0 4.9748201222 17.3706958418 11.6751075222
76 1 1 0.0 4.9432098985 1.4296651101 4.1952945306
77 1 1 0.0 4.9000883511 1.4254327466 9.2404537052
78 1 1 0.0 5.0271004756 1.3420722404 14.2124297765
79 1 1 0.0 4.9087466028 2.8947771362 1.686898056
80 1 1 0.0 4.9497050589 2.8992373888 6.7058612499
81 1 1 0.0 4.879095604 2.8770523749 11.7943938712
82 1 1 0.0 4.8664505596 4.237962516 4.181881833
83 1 1 0.0 4.8596493878 4.3534024277 9.2261216526
84 1 1 0.0 4.9666838038 4.3149109436 14.1950026679
85 1 1 0.0 4.8701596093 5.7955518744 1.7022235594
86 1 1 0.0 4.9199012785 5.7564346541 6.6271422695
87 1 1 0.0 4.9147246724 5.8130505692 11.6899514164
88 1 1 0.0 4.8346824799 7.1601681028 4.2936678382
89 1 1 0.0 4.9483763859 7.2310643479 9.1568050162
90 1 1 0.0 4.8822637821 7.2455376913 14.192982924
91 1 1 0.0 4.9087074711 8.6786785858 1.7264859355
92 1 1 0.0 4.8127061384 8.6689467109 6.7530715932
93 1 1 0.0 4.8864677216 8.7265150509 11.7078383525
94 1 1 0.0 4.873697021 10.0802802566 4.2433251149
95 1 1 0.0 4.8720470893 10.1516334749 9.1688241216
96 1 1 0.0 4.9162487868 10.1478237025 14.2189801803
97 1 1 0.0 4.9347186532 11.5176259844 1.7322527363
98 1 1 0.0 4.9100541019 11.5912943716 6.6803773873
99 1 1 0.0 4.8774237342 11.5605911948 11.7398878519
100 1 1 0.0 4.9545945815 13.0090200189 4.2143080179
101 1 1 0.0 4.8924302553 12.9803391725 9.2335872958
102 1 1 0.0 4.8843815839 12.9528747693 14.2430636629
103 1 1 0.0 4.8886450349 14.3929474572 1.7456467437
104 1 1 0.0 4.9645931703 14.4958529133 6.8209037912
105 1 1 0.0 4.8805322131 14.4471201391 11.7611692512
106 1 1 0.0 4.9238275999 15.8358396675 4.1554962701
107 1 1 0.0 4.9164379198 15.9116257426 9.2851734488
108 1 1 0.0 4.8791285631 15.8317019621 14.2164863632
109 1 1 0.0 7.2569331393 17.3109951849 3.3700671982
110 1 1 0.0 7.3030744612 17.3406152579 8.3473085052
111 1 1 0.0 7.2915679257 17.3143801614 13.3396090661
112 1 1 0.0 7.3060817743 1.4654633652 0.8974926277
113 1 1 0.0 7.3528975038 1.4591595491 5.8803286203
114 1 1 0.0 7.236099554 1.5389706932 10.8809031129
115 1 1 0.0 7.3199050303 2.8893237233 3.4006366951
116 1 1 0.0 7.3031722432 2.8612445086 8.3291360115
117 1 1 0.0 7.2941341693 2.8519963011 13.3453262693
118 1 1 0.0 7.2799688878 4.3249193864 0.8413400389
119 1 1 0.0 7.2768601688 4.3166896498 5.8417722105
120 1 1 0.0 7.2258581124 4.3878755453 10.8297011901
121 1 1 0.0 7.1869007139 5.809164016 3.381367373
122 1 1 0.0 7.186518036 5.7519398407 8.3325561486
123 1 1 0.0 7.2861094133 5.779830516 13.2432066734
124 1 1 0.0 7.2179398642 7.2634624987 0.7947692009
125 1 1 0.0 7.2425691905 7.2761700228 5.8720402428
126 1 1 0.0 7.1638329216 7.2486462697 10.8462174431
127 1 1 0.0 7.132240018 8.7456315781 3.3488915568
128 1 1 0.0 7.1784996817 8.8205478977 8.3603926243
129 1 1 0.0 7.278905665 8.7285135042 13.3171482119
130 1 1 0.0 7.2875982801 10.1151698807 0.8924630051
131 1 1 0.0 7.1962229389 10.1685009048 5.8853895516
132 1 1 0.0 7.1996516447 10.114126239 10.7899950168
133 1 1 0.0 7.2864247515 11.657924025 3.4387111914
134 1 1 0.0 7.2378304781 11.684190676 8.3903808938
135 1 1 0.0 7.283557161 11.5936083978 13.3276262001
136 1 1 0.0 7.2566546742 13.0579914617 0.8829590098
137 1 1 0.0 7.2585646589 12.9580814409 5.9057137679
138 1 1 0.0 7.3198832654 13.0805464723 10.8729888371
139 1 1 0.0 7.3401498605 14.4761786 3.3424491592
140 1 1 0.0 7.2971811892 14.5080071917 8.4494301218
141 1 1 0.0 7.232876077 14.4721115303 13.3808050566
142 1 1 0.0 7.2719877518 15.8916541767 0.8692035739
143 1 1 0.0 7.3354120363 15.8681790293 5.9498151479
144 1 1 0.0 7.3377847155 15.9113733407 10.8896406799
145 1 1 0.0 9.7095408675 17.2897927404 0.0302175632
146 1 1 0.0 9.6060482008 17.3964505751 5.0673544028
147 1 1 0.0 9.6662763714 17.3690459767 10.0762976343
148 1 1 0.0 9.707884761 1.3724636254 2.5926573991
149 1 1 0.0 9.7073820119 1.510855733 7.5567187096
150 1 1 0.0 9.6547400404 1.4282062978 12.511273549
151 1 1 0.0 9.6524082661 2.870802654 0.0357232986
152 1 1 0.0 9.65110846 2.9656275442 5.0296479871
153 1 1 0.0 9.6808320899 2.9647780472 10.1111335264
154 1 1 0.0 9.708264517 4.3693012257 2.5358860083
155 1 1 0.0 9.5216563004 4.356945299 7.5163647296
156 1 1 0.0 9.654769811 4.3575987888 12.5202423408
157 1 1 0.0 9.6061815927 5.7794455588 0.028868304
158 1 1 0.0 9.5727509449 5.8333157342 4.9845142542
159 1 1 0.0 9.6202517506 5.756173473 9.9982615485
160 1 1 0.0 9.5908628242 7.2445117446 2.5790845604
161 1 1 0.0 9.6050582678 7.2071638426 7.5116749714
162 1 1 0.0 9.6497772906 7.2143391784 12.4897834633
163 1 1 0.0 9.5540734042 8.6403371815 0.031749725
164 1 1 0.0 9.6088033081 8.6502949958 5.0084098843
165 1 1 0.0 9.4662673206 8.6217261092 9.9742299965
166 1 1 0.0 9.6067539042 10.0776727953 2.5954463562
167 1 1 0.0 9.5525440458 10.1889148539 7.4710358024
168 1 1 0.0 9.6263177397 10.1397439444 12.4527609076
169 1 1 0.0 9.6342792804 11.5975994788 -0.059068912
170 1 1 0.0 9.6717253209 11.5821777412 4.96969599
171 1 1 0.0 9.5801607691 11.455769105 10.0444665988
172 1 1 0.0 9.6505157358 13.0373196182 2.5653739556
173 1 1 0.0 9.5958169065 13.0155512563 7.5729113994
174 1 1 0.0 9.5984056176 13.0150330541 12.5053034934
175 1 1 0.0 9.6440252102 14.4448929144 0.0465821723
176 1 1 0.0 9.6892866927 14.4536441041 5.0422589234
177 1 1 0.0 9.6737729064 14.4402694869 10.0556727884
178 1 1 0.0 9.6463556783 15.9063998052 2.4971901055
179 1 1 0.0 9.6625364918 15.9729593199 7.6232512131
180 1 1 0.0 9.6404984332 15.8741162818 12.5115528836
181 1 1 0.0 12.0117169601 17.2761227544 1.6698421512
182 1 1 0.0 12.002396193 17.3761279765 6.680466339
183 1 1 0.0 12.0692611565 17.2572786246 11.6778953823
184 1 1 0.0 12.0667936518 1.5169866423 4.0771577962
185 1 1 0.0 11.9940970321 1.4759574543 9.2221494032
186 1 1 0.0 12.0620695345 1.3957838965 14.0956053137
187 1 1 0.0 12.0214856306 2.8384334775 1.5800869556
188 1 1 0.0 11.974650355 2.9330383045 6.6553501505
189 1 1 0.0 12.0719155211 2.831128039 11.6410790425
190 1 1 0.0 12.0548543319 4.2884279407 4.1400409313
191 1 1 0.0 11.9948410781 4.3844518647 9.1730681664
192 1 1 0.0 12.1151662601 4.2881374039 14.1260157934
193 1 1 0.0 11.9795500674 5.7460055257 1.6550975814
194 1 1 0.0 11.9279947085 5.7120603771 6.6395244099
195 1 1 0.0 12.0214157512 5.7744501846 11.6792777492
196 1 1 0.0 12.0705158494 7.1325536632 4.1634772801
197 1 1 0.0 11.9076567052 7.2147223132 9.1261446047
198 1 1 0.0 12.0448569413 7.1243146814 14.1210829752
199 1 1 0.0 12.0051482634 8.6452160036 1.7045086194
200 1 1 0.0 11.9373884518 8.6702605791 6.6250760647
201 1 1 0.0 11.9852184785 8.6545810699 11.6627847142
202 1 1 0.0 12.0560605916 10.0605497172 4.1101208057
203 1 1 0.0 11.9078570198 10.0335075114 9.1495933767
204 1 1 0.0 12.0029281108 10.0140714144 14.1657249458
205 1 1 0.0 11.9717906582 11.5191995833 1.6601572469
206 1 1 0.0 11.9439030202 11.5635859198 6.7345699531
207 1 1 0.0 11.8833115948 11.5939453829 11.6787404109
208 1 1 0.0 11.9839000874 12.910117757 4.1669154246
209 1 1 0.0 11.9002639884 12.9699292945 9.1801025022
210 1 1 0.0 12.0151872354 12.965709754 14.1440656152
211 1 1 0.0 12.0378962006 14.4511848076 1.724593916
212 1 1 0.0 12.0547145031 14.398159174 6.6906825376
213 1 1 0.0 11.9971442853 14.4266954504 11.6964416867
214 1 1 0.0 11.9923986654 15.8632674688 4.2289880236
215 1 1 0.0 12.0042485087 15.8987818873 9.1384263761
216 1 1 0.0 12.0842023818 15.8120087354 14.2012101826
217 1 1 0.0 14.4186958237 17.2935872628 3.3115603967
218 1 1 0.0 14.3928473115 17.3828832357 8.2984993274
219 1 1 0.0 14.414176883 17.270757004 13.3433320083
220 1 1 0.0 14.3970241992 1.4096949035 0.7960652776
221 1 1 0.0 14.3597021397 1.4355791621 5.8012712853
222 1 1 0.0 14.3908395996 1.4499547897 10.8117895841
223 1 1 0.0 14.4610242697 2.8591055262 3.3077422837
224 1 1 0.0 14.3693555372 2.9026178187 8.3888747848
225 1 1 0.0 14.4052463344 2.8186224899 13.2838921409
226 1 1 0.0 14.3871873543 4.2420401532 0.8024684009
227 1 1 0.0 14.3930264125 4.2417273985 5.8198902703
228 1 1 0.0 14.3480490666 4.3053595855 10.8315609434
229 1 1 0.0 14.4121255903 5.7776110082 3.2752979896
230 1 1 0.0 14.347355109 5.7622538467 8.3240137107
231 1 1 0.0 14.4097135692 5.8742000422 13.2883740017
232 1 1 0.0 14.4487756811 7.2536920541 0.8010050161
233 1 1 0.0 14.3105481326 7.0772567253 5.8363349316
234 1 1 0.0 14.3709775905 7.2289087747 10.7932279399
235 1 1 0.0 14.4566448859 8.5771748452 3.3184190279
236 1 1 0.0 14.2894308773 8.6560779889 8.2661631201
237 1 1 0.0 14.4229476767 8.674521018 13.3031355643
238 1 1 0.0 14.379303649 10.0763060757 0.8339877901
239 1 1 0.0 14.2709550323 10.1125282797 5.7724882593
240 1 1 0.0 14.3365476208 10.0745100451 10.7700507273
241 1 1 0.0 14.2771871115 11.5223261934 3.3386413046
242 1 1 0.0 14.2639682842 11.5233735614 8.3246506304
243 1 1 0.0 14.3441924774 11.6060399433 13.2157117528
244 1 1 0.0 14.4194961997 12.9486851571 0.8659282685
245 1 1 0.0 14.3551077869 13.0220670403 5.9013819721
246 1 1 0.0 14.3312149373 12.9710900078 10.8040100929
247 1 1 0.0 14.3454769742 14.4422167669 3.3741666666
248 1 1 0.0 14.4160043145 14.481774382 8.3411041887
249 1 1 0.0 14.4843446656 14.5202143668 13.3981989979
250 1 1 0.0 14.3818228164 15.8807263983 0.9000615822
251 1 1 0.0 14.3864664612 15.8591518845 5.8626144069
252 1 1 0.0 14.3629077351 15.8931000954 10.8232729773
253 1 1 0.0 16.815449855 17.2846875827 0.0429681319
254 1 1 0.0 16.8036352204 17.2745442403 5.0794228919
255 1 1 0.0 16.7947490658 17.2861830771 10.0030344854
256 1 1 0.0 16.8217094138 1.4145545037 2.5183237268
257 1 1 0.0 16.6622807434 1.4907676549 7.4987252316
258 1 1 0.0 16.8291383103 1.5186669435 12.4616620458
259 1 1 0.0 16.7561395356 2.9160914016 0.0750054106
260 1 1 0.0 16.7898567019 2.8430193108 5.0710163094
261 1 1 0.0 16.766638198 2.9558138862 10.0002248487
262 1 1 0.0 16.8342248806 4.3399838686 2.5810760135
263 1 1 0.0 16.7223390644 4.3659626635 7.4589631567
264 1 1 0.0 16.7352464576 4.3073030782 12.488352663
265 1 1 0.0 16.7602434613 5.7657498628 0.0253702882
266 1 1 0.0 16.6538456178 5.7812417572 5.0550161492
267 1 1 0.0 16.7017989085 5.8101266958 9.947954183
268 1 1 0.0 16.8119875484 7.2227780493 2.5321065845
269 1 1 0.0 16.6758346145 7.2253841933 7.5356837969
270 1 1 0.0 16.7596180999 7.2968201494 12.4535298204
271 1 1 0.0 16.8042580277 8.6702136833 0.0408703686
272 1 1 0.0 16.6665393005 8.645226147 5.0275897309
273 1 1 0.0 16.6727502619 8.7112460389 9.9375245684
274 1 1 0.0 16.6426117034 10.107217587 2.4779966619
275 1 1 0.0 16.6414358888 10.0985433598 7.5184687081
276 1 1 0.0 16.7018494651 10.149171964 12.4685462474
277 1 1 0.0 16.7499525189 11.5547185693 -0.029789814
278 1 1 0.0 16.658694575 11.5681588758 5.0533401272
279 1 1 0.0 16.7536985005 11.6232478005 10.0025639562
280 1 1 0.0 16.6304996159 12.9068468082 2.4955598962
281 1 1 0.0 16.6664501896 13.019326299 7.5144158212
282 1 1 0.0 16.7450512592 13.0453066713 12.5099395562
283 1 1 0.0 16.7574470336 14.4396505751 0.0719802328
284 1 1 0.0 16.7273873697 14.4227500278 5.0364006851
285 1 1 0.0 16.7425079363 14.453931241 9.9896590398
286 1 1 0.0 16.7893727192 15.8479863942 2.5797661403
287 1 1 0.0 16.7222501183 15.8832297161 7.5131853319
288 1 1 0.0 16.8406709394 15.9125649807 12.5123396945
289 1 1 0.0 19.20995057 17.2910212483 1.7215628715
290 1 1 0.0 19.0842875518 17.3170548876 6.7046741306
291 1 1 0.0 19.1244524049 17.2781303764 11.6642589147
292 1 1 0.0 19.2167678813 1.4159468085 4.1744759426
293 1 1 0.0 19.0681298327 1.4808742646 9.1403766537
294 1 1 0.0 19.1368574936 1.3808062912 14.1489153838
295 1 1 0.0 19.1429787129 2.8731202546 1.6425816834
296 1 1 0.0 19.1296557136 2.8498263173 6.7204001105
297 1 1 0.0 19.0854478617 2.8718521506 11.7591692295
298 1 1 0.0 19.1574687614 4.3207057429 4.2251183562
299 1 1 0.0 19.083136412 4.338532333 9.1748073384
300 1 1 0.0 18.9813464988 4.3345405331 14.1837303631
301 1 1 0.0 19.1201202956 5.7357385015 1.6428332494
302 1 1 0.0 19.0334475304 5.8342581819 6.694139199
303 1 1 0.0 19.1060037045 5.7334740508 11.7606364339
304 1 1 0.0 19.0549050516 7.2649292165 4.171203151
305 1 1 0.0 19.1106492495 7.2408147809 9.2158057955
306 1 1 0.0 19.1216201604 7.1846955218 14.1264799488
307 1 1 0.0 19.1418120036 8.6669928541 1.6914422071
308 1 1 0.0 18.9900229287 8.6327220042 6.789638837
309 1 1 0.0 19.1120586797 8.7412241413 11.6580384481
310 1 1 0.0 19.0087683567 10.124889224 4.2007407743
311 1 1 0.0 19.0777820953 10.1135887175 9.1984049763
312 1 1 0.0 19.1969262434 10.0981955199 14.1210658213
313 1 1 0.0 19.041929528 11.4782802981 1.6159990869
314 1 1 0.0 19.0925120041 11.5583141904 6.7424534925
315 1 1 0.0 19.1699979561 11.5449644212 11.6925739447
316 1 1 0.0 19.0730754352 12.9655282258 4.1745854953
317 1 1 0.0 19.1855117875 12.9857826046 9.1810880082
318 1 1 0.0 19.1509645836 12.9921573814 14.2087449634
319 1 1 0.0 19.1423081503 14.3850442672 1.7229120597
320 1 1 0.0 19.1399593542 14.4295943906 6.728410428
321 1 1 0.0 19.0921923402 14.4175726543 11.7256356701
322 1 1 0.0 19.1912771393 15.784694783 4.2279497134
323 1 1 0.0 19.0339858055 15.8743429507 9.1750713286
324 1 1 0.0 19.1693878321 15.8512403232 14.2162520881
325 1 1 0.0 21.4889194991 17.3144413054 3.4363133334
326 1 1 0.0 21.4770517777 17.3156582775 8.3928392503
327 1 1 0.0 21.5312517269 17.3056865477 13.2699343069
328 1 1 0.0 21.5267764173 1.4336883322 0.8240937327
329 1 1 0.0 21.4380571349 1.4406327339 5.8905897219
330 1 1 0.0 21.4873987606 1.4423763167 10.8548791273
331 1 1 0.0 21.4776525037 2.8907026963 3.3721761666
332 1 1 0.0 21.4561982798 2.937331837 8.3469474544
333 1 1 0.0 21.4668411722 2.9189602457 13.2830834647
334 1 1 0.0 21.5499568261 4.2792527952 0.8785330993
335 1 1 0.0 21.4340130667 4.2799889674 5.8516352584
336 1 1 0.0 21.452378646 4.3789286034 10.8848491315
337 1 1 0.0 21.3652010889 5.8368807642 3.3720034097
338 1 1 0.0 21.3903350498 5.8077804364 8.3686849189
339 1 1 0.0 21.4924831095 5.7763279307 13.3480501519
340 1 1 0.0 21.4882725432 7.238011526 0.8841180088
341 1 1 0.0 21.4441912497 7.1995604116 5.9401913889
342 1 1 0.0 21.4336545772 7.1715747452 10.8735263531
343 1 1 0.0 21.441106007 8.6536612424 3.3188862108
344 1 1 0.0 21.5199254202 8.6250329749 8.3653433469
345 1 1 0.0 21.5115927539 8.5549651556 13.3646501663
346 1 1 0.0 21.4941225408 10.0495015594 0.8505920611
347 1 1 0.0 21.4475891905 10.0130100346 5.8346224746
348 1 1 0.0 21.493728521 10.0516648983 10.8284748859
349 1 1 0.0 21.4476877841 11.5053985382 3.3141615892
350 1 1 0.0 21.4704607135 11.5423413485 8.3208779232
351 1 1 0.0 21.4913563477 11.4771617968 13.3562917736
352 1 1 0.0 21.5177663106 12.931803286 0.8306083869
353 1 1 0.0 21.3961352582 12.940531912 5.8801224706
354 1 1 0.0 21.4844710553 13.0003058207 10.8896381593
355 1 1 0.0 21.491792973 14.3975561825 3.4276815276
356 1 1 0.0 21.5171629512 14.5094943095 8.400701273
357 1 1 0.0 21.6068525444 14.3515367882 13.3179287129
358 1 1 0.0 21.5102426164 15.744053164 0.8390977536
359 1 1 0.0 21.4449272156 15.8210436405 5.9155720622
360 1 1 0.0 21.5107538381 15.8379434231 10.8441537619
361 1 1 0.0 23.9030909149 17.2525999615 0.1074906185
362 1 1 0.0 23.868982679 17.2304014119 5.0409936932
363 1 1 0.0 23.8492668045 17.2170044948 10.0438469152
364 1 1 0.0 23.8497162379 1.3457623264 2.5729673649
365 1 1 0.0 23.9278600351 1.3728778706 7.5378505407
366 1 1 0.0 23.9099636265 1.4377809263 12.6397038192
367 1 1 0.0 23.8322876295 2.7881060171 0.0333047692
368 1 1 0.0 23.8395214528 2.8415515705 5.1160101873
369 1 1 0.0 23.8449746389 2.8169041384 10.0176166753
370 1 1 0.0 23.8794637949 4.2138015675 2.4741600434
371 1 1 0.0 23.7868658315 4.2628607968 7.5514411993
372 1 1 0.0 23.8692434299 4.3040571448 12.488078727
373 1 1 0.0 23.7896889769 5.7055541292 -0.0050649365
374 1 1 0.0 23.7759279105 5.6298666565 5.0356952082
375 1 1 0.0 23.8375262164 5.6938145369 9.9743653439
376 1 1 0.0 23.8306429999 7.1049157081 2.4450300782
377 1 1 0.0 23.8106203642 7.2219859989 7.5131388249
378 1 1 0.0 23.8562601023 7.1808399239 12.4709952659
379 1 1 0.0 23.9056163304 8.6267419922 3.5996700706e-04
380 1 1 0.0 23.892176869 8.5191163972 4.938568081
381 1 1 0.0 23.8619561591 8.5771939578 10.0155882785
382 1 1 0.0 23.7828320719 9.9932075453 2.4623533012
383 1 1 0.0 23.7779332967 10.0200730115 7.4572580089
384 1 1 0.0 23.7934628961 9.9966897629 12.5500232749
385 1 1 0.0 23.8930114431 11.4751629371 0.0106853086
386 1 1 0.0 23.7607871068 11.4352959423 4.8691252952
387 1 1 0.0 23.8994427538 11.4226479016 9.9999419851
388 1 1 0.0 23.8554977612 12.9623110422 2.4647768314
389 1 1 0.0 23.8616868124 12.8966185825 7.5086551884
390 1 1 0.0 23.8668716491 12.8894250362 12.5397693893
391 1 1 0.0 23.8390605873 14.3576763783 0.0536264311
392 1 1 0.0 23.8299702574 14.4056243685 5.0400061131
393 1 1 0.0 23.9279435433 14.2898637222 10.0346995993
394 1 1 0.0 23.8406899794 15.8264364943 2.5882320467
395 1 1 0.0 23.8567885985 15.8956716698 7.5465977837
396 1 1 0.0 23.8647029807 15.7941087716 12.5968475591
397 1 1 0.0 26.2016243931 17.1420831446 1.6875102966
398 1 1 0.0 26.2224471144 17.1930846493 6.7097751637
399 1 1 0.0 26.2763034203 17.2258132966 11.7444023809
400 1 1 0.0 26.2182574664 1.2652042601 4.1954968769
401 1 1 0.0 26.2271937034 1.3204062637 9.1647352719
402 1 1 0.0 26.2541899981 1.3429291957 14.1737067237
403 1 1 0.0 26.2554498962 2.7713102141 1.6529455238
404 1 1 0.0 26.2514326073 2.8576333284 6.6819311761
405 1 1 0.0 26.2221420697 2.8203928513 11.6790670239
406 1 1 0.0 26.1482073871 4.3437673729 4.0634283844
407 1 1 0.0 26.2030383463 4.3070104507 9.2432646085
408 1 1 0.0 26.2015151299 4.2124928044 14.2081650459
409 1 1 0.0 26.1918488894 5.6966718398 1.7000715148
410 1 1 0.0 26.1231263874 5.6797140392 6.7127396455
411 1 1 0.0 26.2960102392 5.7248779686 11.7289284762
412 1 1 0.0 26.2189667476 7.1732157638 4.245819126
413 1 1 0.0 26.1402640871 7.1180450578 9.1824901772
414 1 1 0.0 26.2113091546 7.0793024907 14.2048163907
415 1 1 0.0 26.2201649079 8.5615732792 1.6167455412
416 1 1 0.0 26.2263803729 8.5519511641 6.6640986466
417 1 1 0.0 26.2321344829 8.5955660979 11.6501588753
418 1 1 0.0 26.1593350932 10.0373518975 4.1025855635
419 1 1 0.0 26.2036311527 10.0414429063 9.084208469
420 1 1 0.0 26.226988559 10.0492546754 14.1345331692
421 1 1 0.0 26.1642543665 11.4310086524 1.6729945955
422 1 1 0.0 26.2040207789 11.4364651831 6.6200102305
423 1 1 0.0 26.2041349518 11.4898869913 11.614008245
424 1 1 0.0 26.1370173347 12.9463899087 4.1175052803
425 1 1 0.0 26.2621097619 12.922532267 9.1201891073
426 1 1 0.0 26.2180110868 12.9364877629 14.1466108451
427 1 1 0.0 26.2488530254 14.2970681308 1.6667785165
428 1 1 0.0 26.1852893232 14.2723905781 6.7215544201
429 1 1 0.0 26.2647235097 14.3223811771 11.6697982168
430 1 1 0.0 26.2424167896 15.7445176287 4.2526587937
431 1 1 0.0 26.1822917801 15.7788337215 9.2148263462
432 1 1 0.0 26.3128479292 15.7478223977 14.2183685753
433 1 1 0.0 28.6176416963 17.2424796086 3.2780848859
434 1 1 0.0 28.5560230466 17.3300074978 8.3387364928
435 1 1 0.0 28.646627752 17.266125735 13.3478824454
436 1 1 0.0 28.5755368151 1.340351399 0.7994094417
437 1 1 0.0 28.5899687707 1.3940539833 5.838529263
438 1 1 0.0 28.5470626096 1.4127057983 10.8402713456
439 1 1 0.0 28.5756221693 2.8092798984 3.336821848
440 1 1 0.0 28.5414450509 2.8288146138 8.3173571971
441 1 1 0.0 28.5743870545 2.8368997454 13.2825990362
442 1 1 0.0 28.6030263406 4.2829331972 0.8512909862
443 1 1 0.0 28.5406332102 4.2852182056 5.8080295188
444 1 1 0.0 28.5203422659 4.2306288446 10.8114853345
445 1 1 0.0 28.508179622 5.6673556421 3.2658325567
446 1 1 0.0 28.515399768 5.7102057461 8.3097798483
447 1 1 0.0 28.5454342865 5.6695946281 13.3709993002
448 1 1 0.0 28.4971642184 7.1715705026 0.7944558094
449 1 1 0.0 28.5540334185 7.1037210685 5.8125712925
450 1 1 0.0 28.5543757794 7.1372998244 10.8355504817
451 1 1 0.0 28.5222702082 8.5874888305 3.2881059606
452 1 1 0.0 28.5965477562 8.5864037665 8.3453404921
453 1 1 0.0 28.5697952204 8.6400270274 13.3949699415
454 1 1 0.0 28.5608026646 10.0383447224 0.8061477772
455 1 1 0.0 28.5787618314 10.0423015243 5.7908767976
456 1 1 0.0 28.5540683204 9.999392173 10.8776586328
457 1 1 0.0 28.5291993017 11.5233604986 3.2915775459
458 1 1 0.0 28.5579121032 11.5559601727 8.2783949474
459 1 1 0.0 28.5429948754 11.5471377578 13.3109482427
460 1 1 0.0 28.5154635764 12.9187145091 0.7848822961
461 1 1 0.0 28.5029612197 12.8893034772 5.7418994038
462 1 1 0.0 28.5487025274 12.8962696501 10.7747281278
463 1 1 0.0 28.5717082001 14.3732547798 3.2779352206
464 1 1 0.0 28.5487809714 14.3245968576 8.3208388256
465 1 1 0.0 28.579548482 14.3620598507 13.2912676831
466 1 1 0.0 28.5575802082 15.7963708526 0.8654860204
467 1 1 0.0 28.5996318056 15.826676995 5.9287781533
468 1 1 0.0 28.6323566631 15.8669249195 10.76524502
469 1 1 0.0 31.0122401896 17.2243379257 0.0623842109
470 1 1 0.0 30.9720349113 17.1808976042 5.0370549957
471 1 1 0.0 30.9959773651 17.2241304776 10.0055664304
472 1 1 0.0 31.0437085791 1.3863098824 2.5433544213
473 1 1 0.0 30.9182723217 1.316063389 7.4975541833
474 1 1 0.0 30.9510361667 1.3098873281 12.4669366178
475 1 1 0.0 30.8980415073 2.7775140378 -0.0193926217
476 1 1 0.0 30.930195182 2.7564020308 4.9719472748
477 1 1 0.0 30.9401641481 2.7871018551 9.9289569792
478 1 1 0.0 30.8935518895 4.2751652343 2.5063421762
479 1 1 0.0 30.9141428797 4.2281201781 7.3791587511
480 1 1 0.0 30.9099589297 4.1747473031 12.4975068529
481 1 1 0.0 30.8833835837 5.6342952914 0.0376124705
482 1 1 0.0 30.8998099307 5.6905210401 4.9459883675
483 1 1 0.0 30.9051280093 5.7751842977 9.9326550081
484 1 1 0.0 30.8678882142 7.1618036583 2.5188419013
485 1 1 0.0 30.9190842768 7.1317045155 7.4951112231
486 1 1 0.0 30.8554912799 7.086582653 12.5037123873
487 1 1 0.0 30.8930680036 8.5534645302 -0.0027795705
488 1 1 0.0 30.8913792664 8.5450524193 5.0050843339
489 1 1 0.0 30.9121548309 8.5820070534 9.9598728874
490 1 1 0.0 30.9197336246 9.9853334437 2.5241279295
491 1 1 0.0 30.9179672283 10.0525028546 7.4344202599
492 1 1 0.0 30.8914894208 9.9819753498 12.5362899283
493 1 1 0.0 30.9706096542 11.3994877698 0.0422653666
494 1 1 0.0 30.9518495553 11.4612793215 4.9778865307
495 1 1 0.0 30.9234297718 11.4464850197 9.9336338267
496 1 1 0.0 30.9114932892 12.8931343544 2.4046961554
497 1 1 0.0 30.8890882966 12.9170691334 7.4640378647
498 1 1 0.0 30.8698069888 12.9205362829 12.4530152883
499 1 1 0.0 30.9761815591 14.332997959 -0.016731107
500 1 1 0.0 30.8883054462 14.3784140693 4.9463205408
501 1 1 0.0 31.0866396175 14.377676536 10.0595597719
502 1 1 0.0 31.0449631439 15.8073043905 2.5169465777
503 1 1 0.0 30.9135423873 15.7226644219 7.5368727689
504 1 1 0.0 30.9344437201 15.8901679778 12.548926369
505 1 1 0.0 33.451008414 17.2513981212 1.6570033391
506 1 1 0.0 33.3550634616 17.254543849 6.5961843159
507 1 1 0.0 33.3278646366 17.2124397111 11.6665947232
508 1 1 0.0 33.3449373835 1.3959841993 4.044114243
509 1 1 0.0 33.2826278576 1.3765427131 9.1773680116
510 1 1 0.0 33.4508840071 1.4230707494 14.1543969453
511 1 1 0.0 33.310861355 2.7730329514 1.6766131599
512 1 1 0.0 33.2049398159 2.7186997966 6.5942667535
513 1 1 0.0 33.2530526061 2.8005738431 11.5876620036
514 1 1 0.0 33.2394887381 4.2932550434 4.1400640628
515 1 1 0.0 33.3017593924 4.2782092019 9.0874916855
516 1 1 0.0 33.2663674517 4.2177469657 14.1237052207
517 1 1 0.0 33.253377207 5.6169289619 1.6278302582
518 1 1 0.0 33.2110598866 5.7078063751 6.6154983069
519 1 1 0.0 33.258490781 5.6216774749 11.5741721427
520 1 1 0.0 33.2700306404 7.1450061056 4.1430870061
521 1 1 0.0 33.3451215631 7.1798921409 9.2071126288
522 1 1 0.0 33.2728535638 7.0822999197 14.0910553611
523 1 1 0.0 33.3177931701 8.5384034289 1.6414798558
524 1 1 0.0 33.2521558749 8.5066769536 6.716549978
525 1 1 0.0 33.219111649 8.5089023877 11.6773383266
526 1 1 0.0 33.2192214961 9.9955958358 4.134939661
527 1 1 0.0 33.234168118 10.0779369733 9.2463602535
528 1 1 0.0 33.3503421709 9.943801454 14.1387080775
529 1 1 0.0 33.2611879081 11.4185062394 1.5616869377
530 1 1 0.0 33.2763074909 11.4050334455 6.7128193887
531 1 1 0.0 33.1409491207 11.455944305 11.6359791751
532 1 1 0.0 33.2708030409 12.9322754745 4.1111984233
533 1 1 0.0 33.2881926626 12.8956533308 9.1055523652
534 1 1 0.0 33.2379228092 12.9296592775 14.1194357836
535 1 1 0.0 33.2833854579 14.2420021511 1.6126393902
536 1 1 0.0 33.2245608592 14.3205688706 6.6568598152
537 1 1 0.0 33.3881268286 14.4213830496 11.7193637648
538 1 1 0.0 33.3827540837 15.7682335347 4.1116708043
539 1 1 0.0 33.4297726863 15.7725952656 9.1093059704
540 1 1 0.0 33.3780589514 15.8493071964 14.1336477198
541 1 1 0.0 35.6934100928 7.1027958603 6.0361454233
542 1 1 0.0 35.6849477423 7.150720367 10.8224299179
543 1 1 0.0 35.5944774271 8.7369269745 8.3839669681
544 1 1 0.0 35.6305695466 9.8945790205 5.8287373312
545 1 1 0.0 35.6010107687 10.0078770531 11.1329212123
546 1 1 0.0 37.9892341242 8.59802053 7.0592480868
547 1 3 0.0 40.1659936945 7.1399914173 7.3972017073
548 1 4 0.0 41.0677053952 7.0676929759 9.5893172348
549 1 4 0.0 40.0056444284 8.451449281 9.3671255463
550 1 2 0.0 40.786436317 7.8829510966 8.8234384859
551 1 2 0.0 42.0947998632 8.8640337968 8.3446209471
552 1 4 0.0 42.1537798875 9.7873889728 8.9279862501
553 1 4 0.0 41.9814781645 9.1722003595 7.2727487536
554 1 4 0.0 43.3027341282 7.5401059806 9.6789317114
555 1 4 0.0 43.4100566988 7.0454214597 8.0527818388
556 1 2 0.0 43.3690171403 7.9337760391 8.6738057699
557 1 2 0.0 44.6716851109 8.7758878276 8.5055435848
558 1 4 0.0 44.6749206322 9.4908770281 9.2513086896
559 1 4 0.0 44.6154776571 9.4009489538 7.6017205347
560 1 4 0.0 45.9763518132 7.3640978073 9.4668759705
561 1 2 0.0 46.0020789289 7.9393924962 8.5478426996
562 1 4 0.0 46.0319484333 7.1885524591 7.723194025
563 1 4 0.0 47.1918623978 9.711334038 9.1822871628
564 1 2 0.0 47.2536587494 8.8675429323 8.4938484842
565 1 4 0.0 47.2635038078 9.3298520783 7.4398372637
566 1 4 0.0 48.7316275426 7.5583522978 9.6277950981
567 1 2 0.0 48.6143464672 8.0479447421 8.6925247719
568 1 4 0.0 48.6231219022 7.189016897 8.005893415
569 1 4 0.0 49.8565527733 9.7955914152 9.0901596827
570 1 2 0.0 49.8191294427 8.9904045424 8.349595575
571 1 4 0.0 49.6027480061 9.454245756 7.397107926
572 1 4 0.0 51.461385752 8.0354781244 9.4201814745