# LAMMPS data file written by OVITO Pro 3.5.4
328 atoms
2 atom types
0.0 63.5335007 xlo xhi
0.0 14.7600003 ylo yhi
0.0 25.0 zlo zhi

Masses

1 12.0107  # C
2 1.00794  # H

Atoms  # full

1 1 1 0.0 0.7103046 1.2299508 11.8000002
2 1 1 0.0 0.7103046 3.6900001 11.8000002
3 1 1 0.0 0.7103046 6.1500492 11.8000002
4 1 1 0.0 0.7103046 8.609951 11.8000002
5 1 1 0.0 0.7103046 11.0699997 11.8000002
6 1 1 0.0 0.7103046 13.5300493 11.8000002
7 1 1 0.0 1.4199738 0.0 11.8000002
8 1 1 0.0 1.4199738 2.4600492 11.8000002
9 1 1 0.0 1.4199738 4.919951 11.8000002
10 1 1 0.0 1.4199738 7.3800001 11.8000002
11 1 1 0.0 1.4199738 9.8400498 11.8000002
12 1 1 0.0 1.4199738 12.2999506 11.8000002
13 1 1 0.0 2.8405832 0.0 11.8000002
14 1 1 0.0 2.8405832 2.4600492 11.8000002
15 1 1 0.0 2.8405832 4.919951 11.8000002
16 1 1 0.0 2.8405832 7.3800001 11.8000002
17 1 1 0.0 2.8405832 9.8400498 11.8000002
18 1 1 0.0 2.8405832 12.2999506 11.8000002
19 1 1 0.0 3.5508874 1.2299508 11.8000002
20 1 1 0.0 3.5508874 3.6900001 11.8000002
21 1 1 0.0 3.5508874 6.1500492 11.8000002
22 1 1 0.0 3.5508874 8.609951 11.8000002
23 1 1 0.0 3.5508874 11.0699997 11.8000002
24 1 1 0.0 3.5508874 13.5300493 11.8000002
25 1 1 0.0 4.9753039199 1.2434266144 11.7388096078
26 1 1 0.0 4.9777376253 3.6925752843 11.8562938688
27 1 1 0.0 4.9693154982 6.1291027549 11.8709441965
28 1 1 0.0 4.9722754873 8.5788101491 11.7784354241
29 1 1 0.0 4.9764722194 11.0431250566 11.8426375234
30 1 1 0.0 4.9720890953 13.5203819245 11.8155279768
31 1 1 0.0 5.6734521135 0.0021716828 11.7224168157
32 1 1 0.0 5.7063617499 2.4719028144 11.7561260409
33 1 1 0.0 5.6942317607 4.9164873269 11.9127577636
34 1 1 0.0 5.6919998038 7.3538810074 11.8467372778
35 1 1 0.0 5.6883866147 9.8067633401 11.7854996152
36 1 1 0.0 5.6851033622 12.2782895901 11.8478628964
37 1 1 0.0 7.1001302259 -0.0086571752 11.7246660946
38 1 1 0.0 7.1344937326 2.4776213364 11.7945815589
39 1 1 0.0 7.1222802058 4.9270413119 11.9350578113
40 1 1 0.0 7.1156697573 7.3786805171 11.8879830727
41 1 1 0.0 7.1153239296 9.8344982241 11.8049906797
42 1 1 0.0 7.1105703283 12.2920747874 11.8276484273
43 1 1 0.0 7.8152189495 1.2246558389 11.823853425
44 1 1 0.0 7.8510790744 3.7010887746 11.9570939276
45 1 1 0.0 7.8348800792 6.1569184235 11.9772131264
46 1 1 0.0 7.824247392 8.6084757088 11.8789974184
47 1 1 0.0 7.8234198742 11.068390715 11.9422572513
48 1 1 0.0 7.8287327974 13.5223043823 11.8619188325
49 1 1 0.0 9.2257053964 1.2105320753 12.0570809816
50 1 1 0.0 9.2525429496 3.6766734633 12.190679346
51 1 1 0.0 9.251160805 6.1382059792 12.1346599585
52 1 1 0.0 9.2420156719 8.6147209895 12.0239617838
53 1 1 0.0 9.2277594726 11.0756218021 12.1375145029
54 1 1 0.0 9.2476587923 13.5150534913 12.0497373115
55 1 1 0.0 9.9561087974 -0.0171868569 12.115766321
56 1 1 0.0 9.9324317384 2.4314043462 12.2519822638
57 1 1 0.0 9.9755863369 4.9094643253 12.277047328
58 1 1 0.0 9.949422664 7.3785927028 12.1330890712
59 1 1 0.0 9.94352201 9.8497781773 12.1503068513
60 1 1 0.0 9.9535804656 12.2940840476 12.1969474499
61 1 1 0.0 11.3682990795 -0.0034319662 12.2846172077
62 1 1 0.0 11.3563653852 2.4191216003 12.3725748297
63 1 1 0.0 11.3943910821 4.8920138329 12.392748666
64 1 1 0.0 11.3678908661 7.3579895899 12.2573894943
65 1 1 0.0 11.3572727361 9.8464609212 12.2908579151
66 1 1 0.0 11.3674454138 12.2917020827 12.3054001586
67 1 1 0.0 12.0830979964 1.2076860555 12.3910215431
68 1 1 0.0 12.0751934299 3.645608957 12.45257572
69 1 1 0.0 12.1056352886 6.1252211474 12.3306585085
70 1 1 0.0 12.0593425384 8.5987415467 12.3494554438
71 1 1 0.0 12.0711448944 11.0653216017 12.3519575563
72 1 1 0.0 12.0701731874 13.521405387 12.3659318746
73 1 1 0.0 13.4898671968 1.1930162165 12.6140142528
74 1 1 0.0 13.491012106 3.659246204 12.5628501613
75 1 1 0.0 13.5176789961 6.1305404453 12.3966622387
76 1 1 0.0 13.4746039282 8.5902469032 12.4890998222
77 1 1 0.0 13.4747790753 11.0559689925 12.4673856286
78 1 1 0.0 13.4888591683 13.5067176324 12.5074600989
79 1 1 0.0 14.1994376462 -0.0316482141 12.6683154381
80 1 1 0.0 14.1913525081 2.4313036908 12.7289391315
81 1 1 0.0 14.2054723231 4.8958987142 12.5607663361
82 1 1 0.0 14.2051414509 7.3677027223 12.4934351602
83 1 1 0.0 14.1636765029 9.8261870277 12.5711967179
84 1 1 0.0 14.2039153667 12.2804104065 12.4935877571
85 1 1 0.0 15.597503125 0.0180880776 12.8714529579
86 1 1 0.0 15.5858684063 2.471524159 12.9779822171
87 1 1 0.0 15.6027803959 4.9125133207 12.7713268469
88 1 1 0.0 15.6064111636 7.3809185266 12.6758141638
89 1 1 0.0 15.5869502827 9.8618055686 12.6114678963
90 1 1 0.0 15.6147515508 12.3103455858 12.6254259223
91 1 1 0.0 16.2918504002 1.2462915341 13.0691678474
92 1 1 0.0 16.3008329028 3.6941770546 12.9909286642
93 1 1 0.0 16.2830631253 6.1497489071 12.8433604876
94 1 1 0.0 16.3050174187 8.6253559099 12.7287479575
95 1 1 0.0 16.3243742762 11.0797154554 12.6272351048
96 1 1 0.0 16.3055095347 13.5497903897 12.818014497
97 1 1 0.0 17.6952554887 1.2635745807 13.2963356476
98 1 1 0.0 17.703337206 3.7122756725 13.2069302799
99 1 1 0.0 17.6811989822 6.1713766628 13.0911192938
100 1 1 0.0 17.7154254526 8.6175849516 12.9061181326
101 1 1 0.0 17.744902937 11.0799391316 12.7286681359
102 1 1 0.0 17.7227100144 13.5637649259 12.9829485288
103 1 1 0.0 18.419681704 0.0396413176 13.2157988956
104 1 1 0.0 18.3967247676 2.4928168106 13.4062547096
105 1 1 0.0 18.3938762769 4.9546984216 13.2319156126
106 1 1 0.0 18.3974615395 7.3982687204 13.1369051065
107 1 1 0.0 18.4461408835 9.8417930322 12.8430435284
108 1 1 0.0 18.4322604982 12.3244550213 12.8877334659
109 1 1 0.0 19.8401368367 0.0411544398 13.3377996435
110 1 1 0.0 19.8111036932 2.4984395005 13.5288145775
111 1 1 0.0 19.812654678 4.974950681 13.3893075961
112 1 1 0.0 19.8091789102 7.419664714 13.340715023
113 1 1 0.0 19.8531632005 9.8538131425 13.06511193
114 1 1 0.0 19.8553739109 12.3339005312 13.0544389843
115 1 1 0.0 20.5288918796 1.2638502123 13.5405415872
116 1 1 0.0 20.5066807785 3.7446142933 13.5682705915
117 1 1 0.0 20.5230799646 6.2001026977 13.4821137072
118 1 1 0.0 20.533844765 8.6326201743 13.3271888829
119 1 1 0.0 20.5574798514 11.0870507744 13.0822178053
120 1 1 0.0 20.5499413704 13.5612898318 13.31350132
121 1 1 0.0 21.9524208781 1.2607253585 13.6783888539
122 1 1 0.0 21.9181270185 3.7508906076 13.7709065741
123 1 1 0.0 21.922594023 6.2106892934 13.7526995152
124 1 1 0.0 21.92375885 8.6598004491 13.615677296
125 1 1 0.0 21.9564978114 11.1099086383 13.3671400772
126 1 1 0.0 21.9663517172 13.5578923939 13.468216892
127 1 1 0.0 22.6607711892 0.021655444 13.6369421544
128 1 1 0.0 22.6347196813 2.5111554037 13.8040940865
129 1 1 0.0 22.6168231103 4.9848650068 13.9528807137
130 1 1 0.0 22.6358119815 7.4382850489 13.809856528
131 1 1 0.0 22.639984438 9.8943606798 13.6571136592
132 1 1 0.0 22.6673111392 12.336386091 13.4476111211
133 1 1 0.0 24.0739930556 0.023445292 13.7788753929
134 1 1 0.0 24.0582408842 2.4981468181 13.9887442873
135 1 1 0.0 24.0343964273 4.9806901022 14.2159830925
136 1 1 0.0 24.0388689603 7.432974271 14.0857523376
137 1 1 0.0 24.0384241329 9.903883236 13.9843305458
138 1 1 0.0 24.0729672495 12.3405199854 13.6958616552
139 1 1 0.0 24.6980829421 1.2418244517 13.9818861779
140 1 1 0.0 24.6964363973 3.7369754863 14.1717209288
141 1 1 0.0 24.7202415353 6.2225135614 14.3477854061
142 1 1 0.0 24.6982450993 8.6733505155 14.1803612973
143 1 1 0.0 24.70794495 11.135484843 13.9737138788
144 1 1 0.0 24.7487631662 13.5650874241 13.7525050569
145 1 2 0.0 25.7763606027 1.2450664053 14.0986583175
146 1 2 0.0 25.7689693592 3.7368579005 14.2847979817
147 1 2 0.0 25.7609138925 8.6782736076 14.4025157693
148 1 2 0.0 25.7523053796 11.1481900841 14.2650460962
149 1 2 0.0 25.8428688797 13.5635303724 13.7968969853
150 1 2 0.0 26.3300270495 7.3227470561 15.2879169026
151 1 1 0.0 26.2038493013 6.3451451127 14.8037717259
152 1 2 0.0 26.403186822 5.5864520926 15.5777345329
153 1 2 0.0 26.9780939568 6.7256906457 12.7874409886
154 1 1 0.0 27.2908322197 6.1804019035 13.6881256772
155 1 2 0.0 27.3834335257 5.1164242542 13.4318306433
156 1 2 0.0 28.84255179 7.7155232964 13.7376193125
157 1 1 0.0 28.684297609 6.7112953906 14.1575366648
158 1 2 0.0 28.6468950631 6.8160352529 15.2417417235
159 1 2 0.0 29.6954702255 5.3169179762 12.8248554344
160 1 1 0.0 29.8931126415 5.8020110292 13.7709914722
161 1 2 0.0 29.9856547212 5.0122740791 14.5179465722
162 1 2 0.0 31.101500013 7.5457768248 14.2302711947
163 1 1 0.0 31.2065072995 6.5934625898 13.7003975796
164 1 2 0.0 31.4446551866 6.8171280441 12.6665205167
165 1 2 0.0 32.1450275246 4.7395274799 14.3100949212
166 1 1 0.0 32.3869402137 5.7996216401 14.3234140186
167 1 2 0.0 32.4841292987 6.0820337618 15.3855750522
168 1 2 0.0 33.8639862798 7.0797962623 13.3774029379
169 1 1 0.0 33.7398543549 6.0216730478 13.5901570081
170 1 2 0.0 33.7383022944 5.5068196721 12.6394949383
171 1 1 0.0 34.9062679849 5.5163416733 14.4929978709
172 1 2 0.0 34.806681849 4.4446972511 14.628350651
173 1 2 0.0 34.8129171408 5.9523531499 15.5004193884
174 1 2 0.0 36.2425154384 6.6332776695 13.1603906034
175 1 1 0.0 36.3219751992 5.8325077048 13.8948524313
176 1 2 0.0 36.7007725614 4.9588813903 13.3503443867
177 1 2 0.0 37.2705387125 5.5205211533 15.8446491941
178 1 2 0.0 37.1324659247 7.2171260378 15.3608893434
179 1 1 0.0 37.3702923527 6.2154615072 14.9981337095
180 1 2 0.0 37.8946456586 1.2391717598 14.8648481449
181 1 2 0.0 37.8873486469 3.6854903381 14.9629718426
182 1 2 0.0 37.9140833357 8.6700898994 14.9597698226
183 1 2 0.0 37.8965585178 11.1318820536 14.8684338051
184 1 2 0.0 37.9524620322 13.5727322519 14.9921541462
185 1 1 0.0 38.9277894887 1.2526048005 14.502075402
186 1 1 0.0 38.9006103809 3.7112838763 14.5797023555
187 1 1 0.0 38.8392629545 6.1902255138 14.5148841102
188 1 1 0.0 38.9406503071 8.6568500244 14.5946058892
189 1 1 0.0 38.9512626982 11.1113884214 14.5980142525
190 1 1 0.0 38.977852347 13.5612821654 14.6144402093
191 1 1 0.0 39.5853734573 14.790867368 14.3547650872
192 1 1 0.0 39.5479486503 2.4869375794 14.3410505186
193 1 1 0.0 39.509042925 4.9565687112 14.3473089129
194 1 1 0.0 39.5309949422 7.4103996262 14.3515633539
195 1 1 0.0 39.5787916886 9.8771090344 14.3784572781
196 1 1 0.0 39.5956779329 12.3274376941 14.4087091363
197 1 1 0.0 40.9579848765 0.0066784127 13.951923373
198 1 1 0.0 40.9148122399 2.469491687 13.9230360955
199 1 1 0.0 40.8844549352 4.917361814 13.9720238136
200 1 1 0.0 40.9060635764 7.3653934916 13.9799752519
201 1 1 0.0 40.9284116536 9.8336783486 13.9484271432
202 1 1 0.0 40.9579859595 12.2979321006 14.0027336176
203 1 1 0.0 41.6166489341 1.2349998201 13.7051079989
204 1 1 0.0 41.5980579883 3.6964319913 13.7676399862
205 1 1 0.0 41.600543293 6.1389231221 13.8197973404
206 1 1 0.0 41.60422785 8.5920107261 13.7751604395
207 1 1 0.0 41.6281851334 11.0613322629 13.779704724
208 1 1 0.0 41.6546460191 13.5304707243 13.8270586906
209 1 1 0.0 42.9878477738 1.2070602618 13.3224097001
210 1 1 0.0 42.9782527604 3.6675959908 13.4030503712
211 1 1 0.0 42.9911299998 6.12755924 13.5043023426
212 1 1 0.0 43.0021960541 8.5933112641 13.5105799268
213 1 1 0.0 43.0033188666 11.0547022186 13.4193398441
214 1 1 0.0 43.0124306939 13.5099459875 13.4041014202
215 1 1 0.0 43.6877190425 -0.0200829381 13.2029929842
216 1 1 0.0 43.6695906491 2.4359457263 13.1725093937
217 1 1 0.0 43.6882632405 4.8968976121 13.3044874452
218 1 1 0.0 43.6919182213 7.3577814739 13.3795498995
219 1 1 0.0 43.6969278769 9.8248800548 13.3187585711
220 1 1 0.0 43.696278722 12.2775788112 13.2100836745
221 1 1 0.0 45.0752403104 14.7410215373 12.9197520716
222 1 1 0.0 45.0602391626 2.4288820082 12.8642639786
223 1 1 0.0 45.0835781618 4.8687954126 13.0346061294
224 1 1 0.0 45.0881672235 7.3484783931 13.083424354
225 1 1 0.0 45.0849387765 9.8149753959 13.0296059202
226 1 1 0.0 45.0969074615 12.2627017735 12.9322113671
227 1 1 0.0 45.7670507949 1.2019480077 12.7152512278
228 1 1 0.0 45.7850883898 3.6511273793 12.826063699
229 1 1 0.0 45.7842091262 6.1119428756 12.9590671338
230 1 1 0.0 45.7750381077 8.5867818292 12.9069907807
231 1 1 0.0 45.7927478185 11.0297641577 12.8576274239
232 1 1 0.0 45.7877574706 13.5125343727 12.8002226334
233 1 1 0.0 47.1813825406 1.2222672498 12.5058462754
234 1 1 0.0 47.1904248692 3.6461972744 12.6154646731
235 1 1 0.0 47.1818882418 6.1056820871 12.6908968009
236 1 1 0.0 47.1697922144 8.5784747863 12.6317842749
237 1 1 0.0 47.1991436258 11.0408572443 12.6778428668
238 1 1 0.0 47.197362482 13.5200133232 12.6066526648
239 1 1 0.0 47.8959673769 14.7552146417 12.488841305
240 1 1 0.0 47.9137545767 2.4291351387 12.4617799233
241 1 1 0.0 47.8781268985 4.8781011157 12.5230747157
242 1 1 0.0 47.8619970463 7.344542873 12.5130409169
243 1 1 0.0 47.8878455387 9.8046945012 12.5169759868
244 1 1 0.0 47.8940408955 12.2772418159 12.5724096946
245 1 1 0.0 49.3164237369 14.7404718243 12.3801324712
246 1 1 0.0 49.3326455761 2.4234973339 12.285882212
247 1 1 0.0 49.2750303857 4.8719486641 12.249967538
248 1 1 0.0 49.260751637 7.3425813903 12.2734501494
249 1 1 0.0 49.2925807417 9.8092313658 12.3305839828
250 1 1 0.0 49.3092018919 12.2654998293 12.4025186068
251 1 1 0.0 50.0547610846 1.1935702965 12.2655511006
252 1 1 0.0 50.0227604818 3.6614495837 12.2236299736
253 1 1 0.0 49.980556027 6.1112308083 12.2071327001
254 1 1 0.0 49.9896120124 8.5715024557 12.2443198811
255 1 1 0.0 50.0069369145 11.0303201616 12.263600676
256 1 1 0.0 50.0123261435 13.5005802832 12.3368974476
257 1 1 0.0 51.4820644861 1.182133487 12.2073434492
258 1 1 0.0 51.4516836698 3.6554924389 12.2124924812
259 1 1 0.0 51.41230033 6.1248991521 12.2042424482
260 1 1 0.0 51.4102080338 8.5787241211 12.1680566595
261 1 1 0.0 51.4234764255 11.0210607579 12.1184543229
262 1 1 0.0 51.4267033054 13.4895209428 12.187085437
263 1 1 0.0 52.1824122756 14.7061458501 12.145593754
264 1 1 0.0 52.187599489 2.4275239816 12.1751410088
265 1 1 0.0 52.154288253 4.9018643885 12.1525170795
266 1 1 0.0 52.1346413655 7.3561577772 12.1909609871
267 1 1 0.0 52.1355597544 9.7937274711 12.0574258378
268 1 1 0.0 52.1227237276 12.256046955 12.0673104876
269 1 1 0.0 53.6013283975 14.7471140794 12.0005888277
270 1 1 0.0 53.6073186746 2.4502732163 12.0113660111
271 1 1 0.0 53.5805055544 4.9309065994 12.0398224129
272 1 1 0.0 53.5530019778 7.3809035122 12.0472828411
273 1 1 0.0 53.5552743694 9.8139715635 11.9439315139
274 1 1 0.0 53.5486655395 12.2848071659 11.9697488658
275 1 1 0.0 54.32489905 1.2197758632 11.9406111544
276 1 1 0.0 54.2950929098 3.7006667951 11.9790509371
277 1 1 0.0 54.2935315967 6.1671816286 11.9840712689
278 1 1 0.0 54.2793415986 8.5942777073 11.9303365944
279 1 1 0.0 54.2545411068 11.0480320423 11.8531356256
280 1 1 0.0 54.3051235206 13.5055299072 11.9802055219
281 1 1 0.0 55.7434005817 1.2310343483 11.896341119
282 1 1 0.0 55.7197660713 3.7043566518 11.8644873208
283 1 1 0.0 55.7112743548 6.1597497626 11.854285291
284 1 1 0.0 55.6972402275 8.5948726726 11.8085879201
285 1 1 0.0 55.6861787008 11.0435232055 11.7999873164
286 1 1 0.0 55.7357161593 13.5128293915 11.9325880649
287 1 1 0.0 56.4487053361 14.7517550916 11.836479511
288 1 1 0.0 56.4459228086 2.4748469614 11.8403910699
289 1 1 0.0 56.427904099 4.9338699823 11.8570785924
290 1 1 0.0 56.4225596921 7.3780261558 11.7531928894
291 1 1 0.0 56.4215508488 9.8203775827 11.790328443
292 1 1 0.0 56.4273802246 12.2664164015 11.8742162921
293 1 1 0.0 57.8679482629 14.7481727756 11.8070486988
294 1 1 0.0 57.8697477517 2.4622464574 11.7948752592
295 1 1 0.0 57.8541319748 4.922158745 11.8613956507
296 1 1 0.0 57.8431350969 7.380170451 11.7629198895
297 1 1 0.0 57.8471433691 9.8295961809 11.7972343508
298 1 1 0.0 57.8526242192 12.2728869743 11.8556678612
299 1 1 0.0 58.5676216709 1.2204012195 11.802275707
300 1 1 0.0 58.5731424411 3.6959287967 11.8055015208
301 1 1 0.0 58.5614923774 6.1586772371 11.8169548107
302 1 1 0.0 58.563722068 8.6035998824 11.7701345998
303 1 1 0.0 58.5699135913 11.0482036361 11.8453027331
304 1 1 0.0 58.565787694 13.5108240157 11.8325816228
305 1 1 0.0 59.983883 1.2299508 11.8000002
306 1 1 0.0 59.983883 3.6900001 11.8000002
307 1 1 0.0 59.983883 6.1500492 11.8000002
308 1 1 0.0 59.983883 8.609951 11.8000002
309 1 1 0.0 59.983883 11.0699997 11.8000002
310 1 1 0.0 59.983883 13.5300493 11.8000002
311 1 1 0.0 60.6935501 0.0 11.8000002
312 1 1 0.0 60.6935501 2.4600492 11.8000002
313 1 1 0.0 60.6935501 4.919951 11.8000002
314 1 1 0.0 60.6935501 7.3800001 11.8000002
315 1 1 0.0 60.6935501 9.8400498 11.8000002
316 1 1 0.0 60.6935501 12.2999506 11.8000002
317 1 1 0.0 62.1141625 0.0 11.8000002
318 1 1 0.0 62.1141625 2.4600492 11.8000002
319 1 1 0.0 62.1141625 4.919951 11.8000002
320 1 1 0.0 62.1141625 7.3800001 11.8000002
321 1 1 0.0 62.1141625 9.8400498 11.8000002
322 1 1 0.0 62.1141625 12.2999506 11.8000002
323 1 1 0.0 62.8244667 1.2299508 11.8000002
324 1 1 0.0 62.8244667 3.6900001 11.8000002
325 1 1 0.0 62.8244667 6.1500492 11.8000002
326 1 1 0.0 62.8244667 8.609951 11.8000002
327 1 1 0.0 62.8244667 11.0699997 11.8000002
328 1 1 0.0 62.8244667 13.5300493 11.8000002
