# LAMMPS data file written by OVITO Pro 3.5.4
328 atoms
2 atom types
0.0 63.5335007 xlo xhi
0.0 14.7600003 ylo yhi
0.0 25.0 zlo zhi

Masses

1 12.0107  # C
2 1.00794  # H

Atoms  # full

1 1 1 0.0 0.7103046 1.2299508 11.8000002
2 1 1 0.0 0.7103046 3.6900001 11.8000002
3 1 1 0.0 0.7103046 6.1500492 11.8000002
4 1 1 0.0 0.7103046 8.609951 11.8000002
5 1 1 0.0 0.7103046 11.0699997 11.8000002
6 1 1 0.0 0.7103046 13.5300493 11.8000002
7 1 1 0.0 1.4199738 0.0 11.8000002
8 1 1 0.0 1.4199738 2.4600492 11.8000002
9 1 1 0.0 1.4199738 4.919951 11.8000002
10 1 1 0.0 1.4199738 7.3800001 11.8000002
11 1 1 0.0 1.4199738 9.8400498 11.8000002
12 1 1 0.0 1.4199738 12.2999506 11.8000002
13 1 1 0.0 2.8405832 0.0 11.8000002
14 1 1 0.0 2.8405832 2.4600492 11.8000002
15 1 1 0.0 2.8405832 4.919951 11.8000002
16 1 1 0.0 2.8405832 7.3800001 11.8000002
17 1 1 0.0 2.8405832 9.8400498 11.8000002
18 1 1 0.0 2.8405832 12.2999506 11.8000002
19 1 1 0.0 3.5508874 1.2299508 11.8000002
20 1 1 0.0 3.5508874 3.6900001 11.8000002
21 1 1 0.0 3.5508874 6.1500492 11.8000002
22 1 1 0.0 3.5508874 8.609951 11.8000002
23 1 1 0.0 3.5508874 11.0699997 11.8000002
24 1 1 0.0 3.5508874 13.5300493 11.8000002
25 1 1 0.0 4.9828435182 1.2456280345 11.8116800843
26 1 1 0.0 4.9741656955 3.6885860284 11.8577224884
27 1 1 0.0 4.9731254317 6.1438345187 11.8405857276
28 1 1 0.0 4.9792491931 8.6262297932 11.9242886397
29 1 1 0.0 4.9797956108 11.0858885896 11.9131453199
30 1 1 0.0 4.9806240917 13.5442106342 11.8541243498
31 1 1 0.0 5.7089601449 0.0171017119 11.8421147334
32 1 1 0.0 5.7152900213 2.4735107475 11.8777511271
33 1 1 0.0 5.6931574066 4.9127593931 11.8918479628
34 1 1 0.0 5.678958936 7.3863003065 11.948777971
35 1 1 0.0 5.6957866506 9.8566473453 11.9290523062
36 1 1 0.0 5.6872825142 12.3158990957 11.97129821
37 1 1 0.0 7.1334886715 0.0336733094 12.0039019711
38 1 1 0.0 7.1413262471 2.4753289635 12.0113604794
39 1 1 0.0 7.1126476829 4.9237182872 12.0734864149
40 1 1 0.0 7.089620213 7.4083153542 12.0777219134
41 1 1 0.0 7.111172476 9.8539594641 12.0139590887
42 1 1 0.0 7.1085411281 12.3266565572 12.0512612462
43 1 1 0.0 7.8549794495 1.254389629 12.0897929068
44 1 1 0.0 7.8439347596 3.702963339 12.0744108816
45 1 1 0.0 7.8035328293 6.1791875047 12.1320827731
46 1 1 0.0 7.8111716365 8.6283597253 12.12788597
47 1 1 0.0 7.8099078192 11.0882853051 12.0432987165
48 1 1 0.0 7.8344923919 13.5502993481 12.0639517274
49 1 1 0.0 9.2628933784 1.2185186384 12.2019685531
50 1 1 0.0 9.2594496223 3.7054033897 12.096166918
51 1 1 0.0 9.2344389238 6.1799737659 12.1253640931
52 1 1 0.0 9.2230097471 8.6206864163 12.2148265692
53 1 1 0.0 9.2267954372 11.0639480493 12.1179108553
54 1 1 0.0 9.2484165938 13.5096494427 12.2028846431
55 1 1 0.0 9.9449112757 -0.024564791 12.3025629826
56 1 1 0.0 9.9554137944 2.4610456177 12.2078849642
57 1 1 0.0 9.9389048615 4.9425992397 12.1454475147
58 1 1 0.0 9.9524805901 7.4013893221 12.1946140914
59 1 1 0.0 9.94400629 9.8364267973 12.2085623835
60 1 1 0.0 9.9547797045 12.2737106952 12.2023609591
61 1 1 0.0 11.3500641565 -0.0305232528 12.4325056851
62 1 1 0.0 11.3574095553 2.4485962619 12.4074429293
63 1 1 0.0 11.3434939927 4.9220719274 12.3651729111
64 1 1 0.0 11.3678562538 7.3841631471 12.3037666471
65 1 1 0.0 11.3572128996 9.8125199748 12.2852020904
66 1 1 0.0 11.3680891914 12.270468505 12.31323927
67 1 1 0.0 12.0393957389 1.2064535452 12.481744284
68 1 1 0.0 12.0510999328 3.6882963839 12.4735782642
69 1 1 0.0 12.0583316966 6.1472987384 12.476538813
70 1 1 0.0 12.0746207309 8.6012903553 12.3673063107
71 1 1 0.0 12.0664733591 11.0376949043 12.3481481388
72 1 1 0.0 12.0572905828 13.5070035369 12.4068149181
73 1 1 0.0 13.4575894531 1.2036927756 12.5466830878
74 1 1 0.0 13.4583196847 3.6689730575 12.6943519572
75 1 1 0.0 13.4751661505 6.1161993432 12.6809864261
76 1 1 0.0 13.4794181357 8.5845171232 12.5382222208
77 1 1 0.0 13.4855846978 11.0392267643 12.408488573
78 1 1 0.0 13.4781104394 13.513693568 12.4283213189
79 1 1 0.0 14.1831633464 -0.0111056928 12.5246671504
80 1 1 0.0 14.1716070316 2.432930228 12.6890378679
81 1 1 0.0 14.1861040779 4.8921731504 12.8222600792
82 1 1 0.0 14.1866095887 7.3554191816 12.6501228433
83 1 1 0.0 14.1964001053 9.8148442634 12.5361508015
84 1 1 0.0 14.1859418607 12.2817648752 12.4335050695
85 1 1 0.0 15.6153600736 -0.0036201 12.5880150172
86 1 1 0.0 15.5971626613 2.4440622117 12.7823745548
87 1 1 0.0 15.6064455795 4.8809849431 12.8691275402
88 1 1 0.0 15.609086947 7.3479504071 12.7238154559
89 1 1 0.0 15.6136227873 9.7903141629 12.5762284967
90 1 1 0.0 15.6080731367 12.2661354456 12.5216715305
91 1 1 0.0 16.3282338867 1.218104169 12.7313887332
92 1 1 0.0 16.3119565811 3.6631460556 12.8396083944
93 1 1 0.0 16.3047252538 6.1168941478 12.8172184522
94 1 1 0.0 16.3262183622 8.5662441374 12.6354530655
95 1 1 0.0 16.3120799373 11.0379563756 12.5561396794
96 1 1 0.0 16.3193689154 13.5146474447 12.5615712461
97 1 1 0.0 17.7481136269 1.2079495826 12.8070336521
98 1 1 0.0 17.7291773591 3.6579844834 12.9278846207
99 1 1 0.0 17.732843244 6.1210649683 12.8645386969
100 1 1 0.0 17.753654042 8.5558046793 12.6705166417
101 1 1 0.0 17.725452139 11.0424056188 12.619031928
102 1 1 0.0 17.7345671037 13.5027868713 12.6540455639
103 1 1 0.0 18.4525162891 -0.0277471585 12.7668730893
104 1 1 0.0 18.4515978512 2.4386721122 12.951568951
105 1 1 0.0 18.4268013543 4.89347655 12.9851912967
106 1 1 0.0 18.4564856027 7.3318824649 12.8161190502
107 1 1 0.0 18.450568128 9.8090971759 12.6982073446
108 1 1 0.0 18.4300254301 12.2702543305 12.6860729871
109 1 1 0.0 19.8659614113 -0.0385426674 12.9051529841
110 1 1 0.0 19.8588181315 2.4331471978 13.0650104157
111 1 1 0.0 19.8368328038 4.9041463165 13.1197645831
112 1 1 0.0 19.8648395105 7.3440333407 12.9639345693
113 1 1 0.0 19.855197323 9.8151635532 12.8981376018
114 1 1 0.0 19.84106431 12.2728145232 12.8714708817
115 1 1 0.0 20.5573831246 1.193557778 13.0776341082
116 1 1 0.0 20.5536389303 3.6734606659 13.1853069254
117 1 1 0.0 20.5773864567 6.1228485966 13.1414636622
118 1 1 0.0 20.5629891777 8.5790956011 13.0100166956
119 1 1 0.0 20.5504562847 11.0523722408 13.0136009719
120 1 1 0.0 20.551869965 13.4979057187 12.960699408
121 1 1 0.0 21.9581913018 1.2258364728 13.2942133521
122 1 1 0.0 21.9666070313 3.7011380539 13.3209052462
123 1 1 0.0 21.9954734457 6.1593532854 13.2653632628
124 1 1 0.0 21.9695518348 8.5978539245 13.2137199893
125 1 1 0.0 21.9485004698 11.0670012982 13.2887792911
126 1 1 0.0 21.9452092041 13.5057126975 13.242434511
127 1 1 0.0 22.6413675819 -0.02130199 13.3450912829
128 1 1 0.0 22.6633741361 2.4572914052 13.4271935857
129 1 1 0.0 22.7013026453 4.9346672906 13.3664898964
130 1 1 0.0 22.715805256 7.3892637585 13.2838764874
131 1 1 0.0 22.6520785723 9.831160491 13.3634668369
132 1 1 0.0 22.64541036 12.2878471611 13.4251623229
133 1 1 0.0 24.0688253959 -0.0098709025 13.547535899
134 1 1 0.0 24.0808046028 2.4448078895 13.5158369062
135 1 1 0.0 24.1283653655 4.9089046109 13.5123489238
136 1 1 0.0 24.1301325256 7.3891421572 13.4967692217
137 1 1 0.0 24.0620656842 9.8450058901 13.52672778
138 1 1 0.0 24.0546045932 12.2921531965 13.6595794262
139 1 1 0.0 24.729962143 1.2100763529 13.6021303876
140 1 1 0.0 24.7682219192 3.6673161279 13.4974719614
141 1 1 0.0 24.7933668865 6.1426441986 13.6571797157
142 1 1 0.0 24.7560061015 8.6315091307 13.6304203317
143 1 1 0.0 24.7214742633 11.060612568 13.659067245
144 1 1 0.0 24.7106052666 13.5218448754 13.7546092871
145 1 2 0.0 25.8173033617 1.2108446833 13.7110336983
146 1 2 0.0 25.8569080617 3.6235892544 13.4517418809
147 1 2 0.0 25.8233932293 8.6717473119 13.800764735
148 1 2 0.0 25.7948753774 11.0596991103 13.8070073035
149 1 2 0.0 25.7912857801 13.5211935057 13.9192435669
150 1 2 0.0 26.5118043129 7.2277078236 14.3301125464
151 1 1 0.0 26.234967587 6.1860563669 14.1625361594
152 1 2 0.0 26.3247258257 5.6521198926 15.1181576665
153 1 2 0.0 26.7229799421 5.5546555707 12.1498737145
154 1 1 0.0 27.2052116124 5.5755744846 13.1393956089
155 1 2 0.0 27.4459463819 4.5410228123 13.4198749037
156 1 2 0.0 28.4227782394 7.1189851635 12.2437505793
157 1 1 0.0 28.5010760962 6.4003087255 13.0720370559
158 1 2 0.0 28.5960711828 7.0221090378 13.9649598138
159 1 2 0.0 29.7270948512 4.9739210029 11.9727707317
160 1 1 0.0 29.7655760614 5.544552095 12.9113069268
161 1 2 0.0 29.8482294152 4.8249039662 13.7252017266
162 1 2 0.0 31.0937023586 6.9851333234 13.8550390538
163 1 1 0.0 31.0231315277 6.4446157443 12.9049708248
164 1 2 0.0 30.937287589 7.181803595 12.1145064879
165 1 2 0.0 32.1472471748 4.9259253676 11.8357389427
166 1 1 0.0 32.3013556476 5.610645791 12.6823857852
167 1 2 0.0 32.4680052634 4.9994692495 13.5661844549
168 1 2 0.0 33.4749891643 7.4171466927 12.9714328334
169 1 1 0.0 33.5603972292 6.4741832028 12.4312104631
170 1 2 0.0 33.6467619114 6.703616612 11.3688512687
171 1 1 0.0 34.8290010807 5.7155265503 12.9180931912
172 1 2 0.0 34.7548194637 4.7047061643 12.5474275285
173 1 2 0.0 34.8177780536 5.6700895228 14.0296130358
174 1 2 0.0 36.1153209966 7.3317607569 12.1728881931
175 1 1 0.0 36.2237865076 6.2875864097 12.4500326072
176 1 2 0.0 36.5720731664 5.737522132 11.5623513418
177 1 2 0.0 37.0762111321 5.2093794703 14.1072375667
178 1 2 0.0 37.1033632343 6.9399279193 14.3241081194
179 1 1 0.0 37.2806131244 6.1501114163 13.6119338782
180 1 2 0.0 37.7607325844 1.284073915 12.8693069175
181 1 2 0.0 37.769792105 3.7399682414 13.1132163641
182 1 2 0.0 37.7583878064 8.6777229374 13.3668859759
183 1 2 0.0 37.7559795933 11.1234181868 13.1702273309
184 1 2 0.0 37.7469777256 13.5606845675 13.1229877096
185 1 1 0.0 38.8495912096 1.2782670945 12.9982850198
186 1 1 0.0 38.8660787225 3.7416033023 13.0405603248
187 1 1 0.0 38.7873820251 6.1982174573 13.2183262294
188 1 1 0.0 38.8465331032 8.6663127368 13.3575378439
189 1 1 0.0 38.8416337365 11.1220264267 13.2631425851
190 1 1 0.0 38.835335554 13.5794320535 13.218620106
191 1 1 0.0 39.4933644696 14.8090051218 13.1600122934
192 1 1 0.0 39.5161670424 2.5077433386 12.9794234723
193 1 1 0.0 39.5036810324 4.9884330773 13.0875028438
194 1 1 0.0 39.4931867327 7.4340309128 13.2750085655
195 1 1 0.0 39.5140090158 9.8999401964 13.3079551084
196 1 1 0.0 39.5024914106 12.3482794896 13.3015578914
197 1 1 0.0 40.9172388462 0.058585867 13.2503007845
198 1 1 0.0 40.9375000266 2.5151506978 12.9998049012
199 1 1 0.0 40.9273971656 4.9905446498 13.1314767286
200 1 1 0.0 40.9292047819 7.4298959703 13.2693407101
201 1 1 0.0 40.9363873723 9.8910539069 13.3364276968
202 1 1 0.0 40.9219621598 12.3550317691 13.3366267255
203 1 1 0.0 41.6352905349 1.2843691434 13.1470060516
204 1 1 0.0 41.6271910423 3.7502587199 13.0844196628
205 1 1 0.0 41.6358323154 6.2012606572 13.2633572922
206 1 1 0.0 41.6412592056 8.65590159 13.3242260612
207 1 1 0.0 41.6403409238 11.1211062485 13.3596052484
208 1 1 0.0 41.6300643141 13.5959265266 13.3593621372
209 1 1 0.0 43.0487544443 1.2755592241 13.2628694743
210 1 1 0.0 43.0361677093 3.7380134119 13.1960540168
211 1 1 0.0 43.0551581133 6.2020433146 13.343894847
212 1 1 0.0 43.0645229963 8.6612142809 13.3925209087
213 1 1 0.0 43.0627912654 11.1136183655 13.3958459008
214 1 1 0.0 43.0461002074 13.5856479929 13.3759440382
215 1 1 0.0 43.7681666784 0.0530766975 13.3316685561
216 1 1 0.0 43.748066002 2.5142246315 13.2217360824
217 1 1 0.0 43.7497794917 4.9637956792 13.2891399143
218 1 1 0.0 43.7701255841 7.4271712763 13.4150916856
219 1 1 0.0 43.7746122495 9.8867186377 13.4049678241
220 1 1 0.0 43.756995425 12.3516247226 13.3720276887
221 1 1 0.0 45.1796100038 14.7985789229 13.2901434836
222 1 1 0.0 45.1597511135 2.4961441704 13.243811054
223 1 1 0.0 45.1709197288 4.9594432728 13.3526597076
224 1 1 0.0 45.1915465594 7.4200899113 13.4176657393
225 1 1 0.0 45.1941843074 9.872547117 13.3865362751
226 1 1 0.0 45.1762641219 12.3430091575 13.3301876527
227 1 1 0.0 45.8764233572 1.2766679623 13.2382716324
228 1 1 0.0 45.8647109157 3.7260089736 13.3033290413
229 1 1 0.0 45.8820168323 6.1881158011 13.3463033368
230 1 1 0.0 45.9122789758 8.6450126985 13.4008435081
231 1 1 0.0 45.8888691346 11.1110858958 13.3467276677
232 1 1 0.0 45.8831617688 13.5704565598 13.259510314
233 1 1 0.0 47.2959772061 1.2601511113 13.179004237
234 1 1 0.0 47.2751444629 3.7112159055 13.2280516752
235 1 1 0.0 47.295616892 6.1599805075 13.2304187522
236 1 1 0.0 47.3160211156 8.6162993195 13.2322826729
237 1 1 0.0 47.3077392459 11.0987461551 13.2427559228
238 1 1 0.0 47.2914139529 13.5560660247 13.188683536
239 1 1 0.0 47.9962121093 14.7863342234 13.0772351688
240 1 1 0.0 47.9953406448 2.4916401031 13.1492067243
241 1 1 0.0 47.9883392392 4.9281076136 13.159344938
242 1 1 0.0 48.0025841384 7.3782691803 13.1537375096
243 1 1 0.0 48.0049011096 9.8596425034 13.1379110895
244 1 1 0.0 48.0091062769 12.3300113737 13.1584743289
245 1 1 0.0 49.3972987518 14.7826649508 12.8626073306
246 1 1 0.0 49.3978556304 2.4835120979 12.9571239992
247 1 1 0.0 49.3963371443 4.9220936457 13.0101244347
248 1 1 0.0 49.4115548231 7.380410408 13.0035399599
249 1 1 0.0 49.4140447123 9.8513377075 12.9973158274
250 1 1 0.0 49.410654506 12.3218338581 12.9486903724
251 1 1 0.0 50.0984175942 1.2546573406 12.8389283049
252 1 1 0.0 50.1123499693 3.7049409863 12.9166644113
253 1 1 0.0 50.1062736775 6.1501509919 12.9715666932
254 1 1 0.0 50.1101470225 8.6145003995 12.937607456
255 1 1 0.0 50.1094298886 11.0841562679 12.9190240964
256 1 1 0.0 50.096466058 13.5487974367 12.7886393511
257 1 1 0.0 51.5140073665 1.261869851 12.7675527572
258 1 1 0.0 51.5273185219 3.7158083078 12.8032381307
259 1 1 0.0 51.5166609609 6.1696673837 12.8251973145
260 1 1 0.0 51.520917477 8.6308544275 12.8325203949
261 1 1 0.0 51.5229300502 11.1097190384 12.7925025292
262 1 1 0.0 51.5091818076 13.5660124564 12.7255570291
263 1 1 0.0 52.2178141091 14.7938226038 12.7162483932
264 1 1 0.0 52.2197599133 2.4859623135 12.6833199284
265 1 1 0.0 52.2312728123 4.9465641913 12.7614678242
266 1 1 0.0 52.2178431242 7.4020238719 12.7482963371
267 1 1 0.0 52.2200538286 9.8678751942 12.7765288966
268 1 1 0.0 52.2281646995 12.3422459085 12.7093908116
269 1 1 0.0 53.6255436273 14.7825282854 12.5386582987
270 1 1 0.0 53.6262491218 2.4868638522 12.5376311452
271 1 1 0.0 53.6461071755 4.9399911333 12.6453168488
272 1 1 0.0 53.6311013605 7.3895606093 12.6069622399
273 1 1 0.0 53.6386409255 9.8477582147 12.6417179139
274 1 1 0.0 53.6469073721 12.3281969651 12.5840302683
275 1 1 0.0 54.3216356925 1.2525310523 12.4411361344
276 1 1 0.0 54.3436119165 3.712831222 12.5187947463
277 1 1 0.0 54.3425885502 6.1680646898 12.5120723893
278 1 1 0.0 54.3541837852 8.615768636 12.5120795805
279 1 1 0.0 54.3387491986 11.0848567996 12.5572182246
280 1 1 0.0 54.3460944913 13.5639425761 12.4953494293
281 1 1 0.0 55.7357292173 1.2435217869 12.3212066039
282 1 1 0.0 55.751223219 3.7048941923 12.3501759342
283 1 1 0.0 55.7436803863 6.1502403232 12.3187057446
284 1 1 0.0 55.7625481039 8.6100574531 12.292638519
285 1 1 0.0 55.752546585 11.0920658503 12.3480714888
286 1 1 0.0 55.7587924559 13.5393984257 12.3053253189
287 1 1 0.0 56.4524366983 14.7768195585 12.2483611756
288 1 1 0.0 56.448827703 2.4754670862 12.2422444509
289 1 1 0.0 56.4563640549 4.928150082 12.259833523
290 1 1 0.0 56.4555161325 7.3701362646 12.1836382506
291 1 1 0.0 56.4488243694 9.8523230876 12.2099705702
292 1 1 0.0 56.4669512526 12.3092341461 12.1718637188
293 1 1 0.0 57.8558915325 14.7690607505 12.0548928974
294 1 1 0.0 57.8600665076 2.4609108636 12.0548994689
295 1 1 0.0 57.8630738797 4.9339477581 12.0745588191
296 1 1 0.0 57.8545217649 7.3750848394 11.9590488378
297 1 1 0.0 57.8496934848 9.8360773946 11.965792368
298 1 1 0.0 57.8702726027 12.2920851143 11.9343022913
299 1 1 0.0 58.5706498263 1.2308784421 11.9415764467
300 1 1 0.0 58.5609532497 3.7012170623 11.957363425
301 1 1 0.0 58.5702952073 6.1545089657 11.9143267149
302 1 1 0.0 58.5602784698 8.6073690622 11.8788464952
303 1 1 0.0 58.5688000158 11.0562094405 11.8690482848
304 1 1 0.0 58.5635959896 13.5393681616 11.9101796604
305 1 1 0.0 59.983883 1.2299508 11.8000002
306 1 1 0.0 59.983883 3.6900001 11.8000002
307 1 1 0.0 59.983883 6.1500492 11.8000002
308 1 1 0.0 59.983883 8.609951 11.8000002
309 1 1 0.0 59.983883 11.0699997 11.8000002
310 1 1 0.0 59.983883 13.5300493 11.8000002
311 1 1 0.0 60.6935501 0.0 11.8000002
312 1 1 0.0 60.6935501 2.4600492 11.8000002
313 1 1 0.0 60.6935501 4.919951 11.8000002
314 1 1 0.0 60.6935501 7.3800001 11.8000002
315 1 1 0.0 60.6935501 9.8400498 11.8000002
316 1 1 0.0 60.6935501 12.2999506 11.8000002
317 1 1 0.0 62.1141625 0.0 11.8000002
318 1 1 0.0 62.1141625 2.4600492 11.8000002
319 1 1 0.0 62.1141625 4.919951 11.8000002
320 1 1 0.0 62.1141625 7.3800001 11.8000002
321 1 1 0.0 62.1141625 9.8400498 11.8000002
322 1 1 0.0 62.1141625 12.2999506 11.8000002
323 1 1 0.0 62.8244667 1.2299508 11.8000002
324 1 1 0.0 62.8244667 3.6900001 11.8000002
325 1 1 0.0 62.8244667 6.1500492 11.8000002
326 1 1 0.0 62.8244667 8.609951 11.8000002
327 1 1 0.0 62.8244667 11.0699997 11.8000002
328 1 1 0.0 62.8244667 13.5300493 11.8000002
