# LAMMPS data file written by OVITO Pro 3.5.4
328 atoms
2 atom types
0.0 63.5335007 xlo xhi
0.0 14.7600003 ylo yhi
0.0 25.0 zlo zhi

Masses

1 12.0107  # C
2 1.00794  # H

Atoms  # full

1 1 1 0.0 0.7103046 1.2299508 11.8000002
2 1 1 0.0 0.7103046 3.6900001 11.8000002
3 1 1 0.0 0.7103046 6.1500492 11.8000002
4 1 1 0.0 0.7103046 8.609951 11.8000002
5 1 1 0.0 0.7103046 11.0699997 11.8000002
6 1 1 0.0 0.7103046 13.5300493 11.8000002
7 1 1 0.0 1.4199738 0.0 11.8000002
8 1 1 0.0 1.4199738 2.4600492 11.8000002
9 1 1 0.0 1.4199738 4.919951 11.8000002
10 1 1 0.0 1.4199738 7.3800001 11.8000002
11 1 1 0.0 1.4199738 9.8400498 11.8000002
12 1 1 0.0 1.4199738 12.2999506 11.8000002
13 1 1 0.0 2.8405832 0.0 11.8000002
14 1 1 0.0 2.8405832 2.4600492 11.8000002
15 1 1 0.0 2.8405832 4.919951 11.8000002
16 1 1 0.0 2.8405832 7.3800001 11.8000002
17 1 1 0.0 2.8405832 9.8400498 11.8000002
18 1 1 0.0 2.8405832 12.2999506 11.8000002
19 1 1 0.0 3.5508874 1.2299508 11.8000002
20 1 1 0.0 3.5508874 3.6900001 11.8000002
21 1 1 0.0 3.5508874 6.1500492 11.8000002
22 1 1 0.0 3.5508874 8.609951 11.8000002
23 1 1 0.0 3.5508874 11.0699997 11.8000002
24 1 1 0.0 3.5508874 13.5300493 11.8000002
25 1 1 0.0 4.9785924424 1.2075714648 11.7501246722
26 1 1 0.0 4.9783723107 3.6587107863 11.783735453
27 1 1 0.0 4.9851262299 6.119501919 11.7721548686
28 1 1 0.0 4.9774282564 8.6081399161 11.8364693562
29 1 1 0.0 4.9817742195 11.0858309153 11.850039495
30 1 1 0.0 4.987248133 13.5267379671 11.7658929277
31 1 1 0.0 5.7112880165 -0.0090852418 11.7208209773
32 1 1 0.0 5.699044193 2.4341204902 11.7569651258
33 1 1 0.0 5.7081863709 4.8831388894 11.7355400909
34 1 1 0.0 5.6844807108 7.3610735737 11.8684893199
35 1 1 0.0 5.6958884281 9.8470581414 11.8876420123
36 1 1 0.0 5.704237201 12.30975912 11.8519537441
37 1 1 0.0 7.1352936495 -0.0307515756 11.7458139441
38 1 1 0.0 7.1259958568 2.421284282 11.7598965116
39 1 1 0.0 7.1400353181 4.8700556005 11.7452508473
40 1 1 0.0 7.1091648319 7.3404181417 11.9809862809
41 1 1 0.0 7.123581848 9.8060677203 11.9075712719
42 1 1 0.0 7.1290425669 12.283584908 11.8652243402
43 1 1 0.0 7.8549129996 1.1921918475 11.8041963337
44 1 1 0.0 7.866075405 3.6376479616 11.7764029917
45 1 1 0.0 7.8210476303 6.1048884912 11.9434376848
46 1 1 0.0 7.8304948308 8.5670643553 11.9614912201
47 1 1 0.0 7.8276006304 11.0432901816 11.8957975372
48 1 1 0.0 7.8499474943 13.5061479591 11.7670104197
49 1 1 0.0 9.2824731674 1.1859923985 11.9121028717
50 1 1 0.0 9.2810814524 3.6352549815 11.9219637665
51 1 1 0.0 9.2412427156 6.080782248 12.0065618313
52 1 1 0.0 9.2517895394 8.5504803732 12.0364358123
53 1 1 0.0 9.2460919078 11.0244342754 11.9280065858
54 1 1 0.0 9.2687092183 13.4944200062 11.7928377238
55 1 1 0.0 9.9864294635 -0.0492943607 11.9428850613
56 1 1 0.0 9.997275262 2.4123047436 11.9692199335
57 1 1 0.0 9.9851495984 4.8654975124 11.9695684163
58 1 1 0.0 9.9615189867 7.3084702568 12.0684331557
59 1 1 0.0 9.946019185 9.7911262992 12.0216397638
60 1 1 0.0 9.9509246165 12.2519257031 11.8746110508
61 1 1 0.0 11.3940897538 -0.0511700573 12.1204310226
62 1 1 0.0 11.4202814514 2.3960811891 12.0720635315
63 1 1 0.0 11.3992769152 4.8503541481 12.0609610091
64 1 1 0.0 11.3851755267 7.3081215436 12.1264646274
65 1 1 0.0 11.3692099631 9.7933680194 12.1232454809
66 1 1 0.0 11.3570050843 12.2648244335 12.0538587263
67 1 1 0.0 12.1183589882 1.1639063932 12.1791649039
68 1 1 0.0 12.1309344381 3.6307709124 12.1397106833
69 1 1 0.0 12.110137595 6.0785483688 12.1376513992
70 1 1 0.0 12.0948829544 8.5544961437 12.122082918
71 1 1 0.0 12.0755695486 11.0337518355 12.1085317533
72 1 1 0.0 12.0952459863 13.4752361017 12.1175377216
73 1 1 0.0 13.5479683366 1.1526599526 12.2992279617
74 1 1 0.0 13.5413705646 3.6228681262 12.3506416898
75 1 1 0.0 13.5348356723 6.0537122545 12.2942702119
76 1 1 0.0 13.5216039006 8.5170150173 12.1084873702
77 1 1 0.0 13.4979679905 10.9916879892 12.1759907017
78 1 1 0.0 13.5274653997 13.4599190301 12.220969936
79 1 1 0.0 14.2598207097 -0.085894901 12.2945897729
80 1 1 0.0 14.2569356656 2.3849004652 12.3901674927
81 1 1 0.0 14.269115848 4.8433803537 12.4633806344
82 1 1 0.0 14.2436537556 7.2880657645 12.2338493886
83 1 1 0.0 14.2287378434 9.7545393445 12.1461447039
84 1 1 0.0 14.2159256794 12.215605901 12.249363774
85 1 1 0.0 15.6871721215 -0.0886564103 12.4282851043
86 1 1 0.0 15.6865402416 2.3697439121 12.4622212469
87 1 1 0.0 15.6906891304 4.8247240045 12.51522965
88 1 1 0.0 15.6712499648 7.2725763643 12.3381433841
89 1 1 0.0 15.6477640327 9.7418647267 12.2847882593
90 1 1 0.0 15.6345494083 12.2148545673 12.3893238966
91 1 1 0.0 16.4049674902 1.1369539186 12.4962240678
92 1 1 0.0 16.4062784644 3.5921234449 12.5265998637
93 1 1 0.0 16.4029207814 6.0513927152 12.4937375139
94 1 1 0.0 16.3744655482 8.5116931841 12.3721109722
95 1 1 0.0 16.3456977538 10.9852731661 12.4384779689
96 1 1 0.0 16.3708657805 13.4249132567 12.5106061215
97 1 1 0.0 17.8262797831 1.1172593509 12.6395921558
98 1 1 0.0 17.8232009393 3.5885447981 12.6136669131
99 1 1 0.0 17.8199588299 6.0291434456 12.6332471377
100 1 1 0.0 17.7913259794 8.4933463112 12.5810338875
101 1 1 0.0 17.7726893339 10.9644218225 12.5718026125
102 1 1 0.0 17.7960726379 13.4055288061 12.603551224
103 1 1 0.0 18.5103179333 -0.1339875551 12.6829568262
104 1 1 0.0 18.536147681 2.3515018449 12.6959752164
105 1 1 0.0 18.5490147671 4.8081679999 12.6793681931
106 1 1 0.0 18.5263367847 7.2685552664 12.6907935208
107 1 1 0.0 18.4903419535 9.7355532313 12.6785624511
108 1 1 0.0 18.5125623929 12.1859704014 12.6185942723
109 1 1 0.0 19.9366434675 -0.1568427 12.7956792217
110 1 1 0.0 19.9565315148 2.3153626457 12.8230897669
111 1 1 0.0 19.958052086 4.7712584988 12.8651831466
112 1 1 0.0 19.9450030739 7.2390607661 12.8582718775
113 1 1 0.0 19.9126704743 9.6963164932 12.8610279405
114 1 1 0.0 19.9444468948 12.1484984582 12.750160148
115 1 1 0.0 20.6496790712 1.0693591531 12.8930926955
116 1 1 0.0 20.6592116389 3.5411401612 12.9351410401
117 1 1 0.0 20.6488288834 6.0089473926 12.9308068742
118 1 1 0.0 20.6444308168 8.4639218637 13.0119997187
119 1 1 0.0 20.6502820105 10.9089727075 12.8851544109
120 1 1 0.0 20.6658311113 13.3755402632 12.8227681201
121 1 1 0.0 22.0796212888 1.0386261278 12.9935025577
122 1 1 0.0 22.0759197005 3.5064771653 13.0553583189
123 1 1 0.0 22.0471594283 5.9619496125 13.1615530906
124 1 1 0.0 22.0448252563 8.420665553 13.2994299306
125 1 1 0.0 22.0621649354 10.883058687 13.1028550566
126 1 1 0.0 22.0890838675 13.3536501994 12.9459050577
127 1 1 0.0 22.810426118 -0.1835655312 13.0432762246
128 1 1 0.0 22.7759999092 2.2659889877 13.1763877965
129 1 1 0.0 22.756219599 4.7402954611 13.2059430011
130 1 1 0.0 22.7407257178 7.1821288264 13.386827791
131 1 1 0.0 22.7598833257 9.6509360466 13.3158119876
132 1 1 0.0 22.7743074176 12.1157050919 13.1064104609
133 1 1 0.0 24.218740062 -0.2172996878 13.3092150502
134 1 1 0.0 24.1900142905 2.2529921791 13.437876986
135 1 1 0.0 24.1510789564 4.726713656 13.4863518766
136 1 1 0.0 24.1485040838 7.1868824729 13.5972683231
137 1 1 0.0 24.1784880588 9.6317647759 13.4293979682
138 1 1 0.0 24.1968267234 12.0810416022 13.2491996478
139 1 1 0.0 24.869164045 1.0089396383 13.4879157664
140 1 1 0.0 24.8189419696 3.4983483263 13.570173215
141 1 1 0.0 24.8033422274 5.9515832817 13.6986804141
142 1 1 0.0 24.8258092955 8.4061956321 13.6016403363
143 1 1 0.0 24.8571726831 10.8494961238 13.3586955791
144 1 1 0.0 24.8607764379 13.297694797 13.3962353086
145 1 2 0.0 25.9362316044 1.0100931402 13.6997301533
146 1 2 0.0 25.8900936864 3.4873065416 13.8052824022
147 1 2 0.0 25.9004456149 8.3981778277 13.7284530961
148 1 2 0.0 25.9377505266 10.8300902314 13.4947683929
149 1 2 0.0 25.9386560238 13.2985380158 13.5791619828
150 1 2 0.0 26.3375759695 6.6696098926 15.0033783483
151 1 1 0.0 26.2179855454 5.9006267982 14.2307406615
152 1 2 0.0 26.3660024733 4.9406975566 14.7312462225
153 1 2 0.0 26.9103917711 6.7514769418 12.3832222797
154 1 1 0.0 27.3066330457 6.0876837676 13.1531529965
155 1 2 0.0 27.5017588165 5.1459743136 12.6610330396
156 1 2 0.0 28.7239652109 7.7039739824 13.357330226
157 1 1 0.0 28.6397817311 6.6755807671 13.7227212821
158 1 2 0.0 28.5585943793 6.7212199831 14.8002825517
159 1 2 0.0 29.8826835169 5.6460804217 12.263301874
160 1 1 0.0 29.9189589021 5.8888311292 13.3228437387
161 1 2 0.0 29.9566154546 4.9390327972 13.8454556735
162 1 2 0.0 31.1217516497 7.3164845174 14.4759515538
163 1 1 0.0 31.2333462591 6.6919333725 13.5689200688
164 1 2 0.0 31.4131740223 7.3765189015 12.7320656841
165 1 2 0.0 32.561318413 5.1893898633 12.7612281725
166 1 1 0.0 32.4749347031 5.7500315725 13.7034195753
167 1 2 0.0 32.3201037705 5.0384704008 14.5157399843
168 1 2 0.0 33.6408608275 7.2014943917 14.8276051836
169 1 1 0.0 33.7778665763 6.5465634918 13.9684044703
170 1 2 0.0 34.003962953 7.1616948611 13.0846142578
171 1 1 0.0 34.9527825255 5.5800021463 14.2607777979
172 1 2 0.0 34.7470993056 4.6248862635 13.7745154918
173 1 2 0.0 35.008061542 5.3910204274 15.3377056968
174 1 2 0.0 36.1424601688 7.084288531 13.2252146536
175 1 1 0.0 36.3176381501 6.1213238349 13.7294569971
176 1 2 0.0 36.7265858717 5.4284981954 12.9804188756
177 1 2 0.0 37.2141498235 5.5333330989 15.6099145251
178 1 2 0.0 37.1901683173 7.2877017066 15.3366622414
179 1 1 0.0 37.3705743058 6.3155389796 14.8639620465
180 1 2 0.0 37.803786297 1.3405872479 14.6943774164
181 1 2 0.0 37.7678807048 3.7839226591 14.4490157604
182 1 2 0.0 37.7901496102 8.7263336837 14.5924262743
183 1 2 0.0 37.7904154247 11.1615286428 14.6489701656
184 1 2 0.0 37.8247593326 13.637001263 14.7768646452
185 1 1 0.0 38.8728877087 1.3363092126 14.4811681163
186 1 1 0.0 38.8661206924 3.7850681336 14.3232349569
187 1 1 0.0 38.8228041209 6.241649301 14.3614175461
188 1 1 0.0 38.838160648 8.7165691667 14.3016209095
189 1 1 0.0 38.864166061 11.1592460093 14.4109748022
190 1 1 0.0 38.8892791846 13.6279445186 14.5160358185
191 1 1 0.0 39.5313274947 14.8591300834 14.36300223
192 1 1 0.0 39.5250820981 2.5568932841 14.2647509057
193 1 1 0.0 39.5122021664 5.0194157823 14.2216776554
194 1 1 0.0 39.4844989252 7.4743799774 14.1575520891
195 1 1 0.0 39.4952731928 9.9361225397 14.1949759758
196 1 1 0.0 39.5266413066 12.3911853798 14.3477729011
197 1 1 0.0 40.9285648635 0.0733736953 14.056254187
198 1 1 0.0 40.9330982913 2.5267210555 14.0861617031
199 1 1 0.0 40.9224672019 4.9834186629 13.9991104966
200 1 1 0.0 40.8879429122 7.4433768207 13.9019465513
201 1 1 0.0 40.8781667108 9.9156441427 13.8987120978
202 1 1 0.0 40.9116892653 12.3917114938 14.0168687693
203 1 1 0.0 41.6301551284 1.2932096326 13.9212259989
204 1 1 0.0 41.6311245615 3.7505518716 13.9620865968
205 1 1 0.0 41.6149173773 6.2085076246 13.8567875153
206 1 1 0.0 41.5759408809 8.6799390614 13.7536319154
207 1 1 0.0 41.5844770749 11.1524259576 13.8135226551
208 1 1 0.0 41.6360278998 13.6146824386 13.914657019
209 1 1 0.0 43.0099951613 1.2745551062 13.5748589388
210 1 1 0.0 43.0285480956 3.7232965509 13.7181721902
211 1 1 0.0 43.0245765067 6.2041383171 13.677296772
212 1 1 0.0 42.986421842 8.6758252034 13.5369213294
213 1 1 0.0 42.9905065555 11.1355829318 13.5968128622
214 1 1 0.0 43.0269007971 13.5903067392 13.6506734205
215 1 1 0.0 43.7152296591 0.0519236777 13.4531484305
216 1 1 0.0 43.7153822238 2.502324636 13.475501955
217 1 1 0.0 43.7192203807 4.9646191135 13.6083206787
218 1 1 0.0 43.7010154815 7.4420822606 13.4951894003
219 1 1 0.0 43.6960351513 9.9109349488 13.469599502
220 1 1 0.0 43.7249439622 12.3602274206 13.5475895192
221 1 1 0.0 45.1093377816 14.8234311111 13.183551483
222 1 1 0.0 45.1200213278 2.5183786373 13.2455149319
223 1 1 0.0 45.1206386127 4.9643733236 13.3729384172
224 1 1 0.0 45.1092460034 7.43763718 13.3108364605
225 1 1 0.0 45.1086261423 9.907991568 13.3313482515
226 1 1 0.0 45.1121801307 12.3752033331 13.2531686869
227 1 1 0.0 45.8090913844 1.2907332695 13.0899060237
228 1 1 0.0 45.8350660539 3.744670316 13.2063580681
229 1 1 0.0 45.8106914826 6.2023202547 13.2495666707
230 1 1 0.0 45.8194540702 8.6676256584 13.2325075555
231 1 1 0.0 45.8094247717 11.1366164955 13.2161485467
232 1 1 0.0 45.8189844304 13.5977167129 13.0871498849
233 1 1 0.0 47.2152706075 1.2729109461 12.9546772586
234 1 1 0.0 47.240844872 3.7294044938 13.0174912469
235 1 1 0.0 47.2215062082 6.1771377201 13.0667160708
236 1 1 0.0 47.2239251169 8.6451024945 13.04130835
237 1 1 0.0 47.2061152087 11.0907925615 12.957677608
238 1 1 0.0 47.2296067317 13.560934901 12.9283394285
239 1 1 0.0 47.9169918295 14.7983012743 12.8942009052
240 1 1 0.0 47.9345238563 2.5002661421 12.91299513
241 1 1 0.0 47.9502168526 4.9609587293 12.9482941114
242 1 1 0.0 47.917223172 7.4108371912 12.9453605233
243 1 1 0.0 47.9207849241 9.8655258631 12.9102635519
244 1 1 0.0 47.9198202845 12.3215121401 12.8150213842
245 1 1 0.0 49.3302409149 14.7948915078 12.7384650482
246 1 1 0.0 49.3377655521 2.4933142841 12.7196280315
247 1 1 0.0 49.3431628788 4.9439651395 12.710943161
248 1 1 0.0 49.3260532075 7.4026676997 12.7480242371
249 1 1 0.0 49.325335847 9.8595277841 12.7089753809
250 1 1 0.0 49.3365998168 12.3132092938 12.6998679086
251 1 1 0.0 50.038326521 1.2613971679 12.6166043545
252 1 1 0.0 50.0465663279 3.7172286627 12.5919428393
253 1 1 0.0 50.0307345607 6.1802598466 12.6306416512
254 1 1 0.0 50.0322013193 8.6314742479 12.6685745894
255 1 1 0.0 50.050593971 11.0803880569 12.6223032556
256 1 1 0.0 50.0326635973 13.5573566019 12.6467944977
257 1 1 0.0 51.4440050896 1.257255857 12.397709173
258 1 1 0.0 51.4537240801 3.701349594 12.3798632259
259 1 1 0.0 51.4491920716 6.1510624693 12.4650306688
260 1 1 0.0 51.4456744677 8.6129776579 12.5243095493
261 1 1 0.0 51.4565270821 11.0704817554 12.4467894641
262 1 1 0.0 51.4439126185 13.5391473021 12.4698569735
263 1 1 0.0 52.1347819642 14.7742083729 12.3078044842
264 1 1 0.0 52.1691102172 2.4813354198 12.2879857549
265 1 1 0.0 52.1647048482 4.925337456 12.3445752646
266 1 1 0.0 52.1596860502 7.3796665947 12.406001174
267 1 1 0.0 52.1625683298 9.8365090181 12.4066570488
268 1 1 0.0 52.1509310656 12.3065972525 12.3422531008
269 1 1 0.0 53.5542557926 14.758781598 12.137468911
270 1 1 0.0 53.5906661843 2.4642884167 12.1775809046
271 1 1 0.0 53.5824883219 4.9318084086 12.233971444
272 1 1 0.0 53.5745396242 7.3875638257 12.2161922755
273 1 1 0.0 53.5746085685 9.8422744014 12.247725156
274 1 1 0.0 53.5634026249 12.3022412987 12.161184436
275 1 1 0.0 54.2840805813 1.2209906458 12.0818628181
276 1 1 0.0 54.3075329787 3.7001203679 12.2163717416
277 1 1 0.0 54.2931781591 6.1645213195 12.1663328373
278 1 1 0.0 54.2909172251 8.6145333152 12.172931442
279 1 1 0.0 54.2839757739 11.0714234907 12.1542086085
280 1 1 0.0 54.2764065431 13.5296059356 12.1066295009
281 1 1 0.0 55.7037069237 1.2183572212 11.9560778835
282 1 1 0.0 55.7307678995 3.7006980114 12.1361055951
283 1 1 0.0 55.7139467701 6.1655967589 12.1244533202
284 1 1 0.0 55.7142549427 8.6219825445 12.0632685214
285 1 1 0.0 55.7118163248 11.0750494129 12.0278481224
286 1 1 0.0 55.7035143058 13.5226250026 12.0508165861
287 1 1 0.0 56.428292685 14.7530937553 11.9839404513
288 1 1 0.0 56.4068350012 2.4629266321 11.9216227806
289 1 1 0.0 56.4340637904 4.9382192881 12.1104069038
290 1 1 0.0 56.4277200967 7.3923254774 12.0560766598
291 1 1 0.0 56.4416027647 9.8508938095 11.987340819
292 1 1 0.0 56.4301540849 12.2990262027 12.0099868651
293 1 1 0.0 57.8521512176 14.76316244 11.9526250674
294 1 1 0.0 57.8293407403 2.4675854571 11.7922724315
295 1 1 0.0 57.8450539984 4.932025775 11.9377780657
296 1 1 0.0 57.8527273176 7.3937298339 11.9830338972
297 1 1 0.0 57.8656996854 9.8450210604 11.9038403508
298 1 1 0.0 57.8556576702 12.3108517748 11.9678364053
299 1 1 0.0 58.5509532597 1.2401044115 11.8248730329
300 1 1 0.0 58.5498313619 3.7021286048 11.7778387663
301 1 1 0.0 58.5650304588 6.1638755666 11.9124667902
302 1 1 0.0 58.5725524327 8.6146893846 11.8821646238
303 1 1 0.0 58.567971404 11.0831379586 11.8949585685
304 1 1 0.0 58.5692019606 13.5376421939 11.9438236213
305 1 1 0.0 59.983883 1.2299508 11.8000002
306 1 1 0.0 59.983883 3.6900001 11.8000002
307 1 1 0.0 59.983883 6.1500492 11.8000002
308 1 1 0.0 59.983883 8.609951 11.8000002
309 1 1 0.0 59.983883 11.0699997 11.8000002
310 1 1 0.0 59.983883 13.5300493 11.8000002
311 1 1 0.0 60.6935501 0.0 11.8000002
312 1 1 0.0 60.6935501 2.4600492 11.8000002
313 1 1 0.0 60.6935501 4.919951 11.8000002
314 1 1 0.0 60.6935501 7.3800001 11.8000002
315 1 1 0.0 60.6935501 9.8400498 11.8000002
316 1 1 0.0 60.6935501 12.2999506 11.8000002
317 1 1 0.0 62.1141625 0.0 11.8000002
318 1 1 0.0 62.1141625 2.4600492 11.8000002
319 1 1 0.0 62.1141625 4.919951 11.8000002
320 1 1 0.0 62.1141625 7.3800001 11.8000002
321 1 1 0.0 62.1141625 9.8400498 11.8000002
322 1 1 0.0 62.1141625 12.2999506 11.8000002
323 1 1 0.0 62.8244667 1.2299508 11.8000002
324 1 1 0.0 62.8244667 3.6900001 11.8000002
325 1 1 0.0 62.8244667 6.1500492 11.8000002
326 1 1 0.0 62.8244667 8.609951 11.8000002
327 1 1 0.0 62.8244667 11.0699997 11.8000002
328 1 1 0.0 62.8244667 13.5300493 11.8000002
