# LAMMPS data file written by OVITO Pro 3.5.4
328 atoms
2 atom types
0.0 63.5335007 xlo xhi
0.0 14.7600003 ylo yhi
0.0 25.0 zlo zhi

Masses

1 12.0107  # C
2 1.00794  # H

Atoms  # full

1 1 1 0.0 0.7103046 1.2299508 11.8000002
2 1 1 0.0 0.7103046 3.6900001 11.8000002
3 1 1 0.0 0.7103046 6.1500492 11.8000002
4 1 1 0.0 0.7103046 8.609951 11.8000002
5 1 1 0.0 0.7103046 11.0699997 11.8000002
6 1 1 0.0 0.7103046 13.5300493 11.8000002
7 1 1 0.0 1.4199738 0.0 11.8000002
8 1 1 0.0 1.4199738 2.4600492 11.8000002
9 1 1 0.0 1.4199738 4.919951 11.8000002
10 1 1 0.0 1.4199738 7.3800001 11.8000002
11 1 1 0.0 1.4199738 9.8400498 11.8000002
12 1 1 0.0 1.4199738 12.2999506 11.8000002
13 1 1 0.0 2.8405832 0.0 11.8000002
14 1 1 0.0 2.8405832 2.4600492 11.8000002
15 1 1 0.0 2.8405832 4.919951 11.8000002
16 1 1 0.0 2.8405832 7.3800001 11.8000002
17 1 1 0.0 2.8405832 9.8400498 11.8000002
18 1 1 0.0 2.8405832 12.2999506 11.8000002
19 1 1 0.0 3.5508874 1.2299508 11.8000002
20 1 1 0.0 3.5508874 3.6900001 11.8000002
21 1 1 0.0 3.5508874 6.1500492 11.8000002
22 1 1 0.0 3.5508874 8.609951 11.8000002
23 1 1 0.0 3.5508874 11.0699997 11.8000002
24 1 1 0.0 3.5508874 13.5300493 11.8000002
25 1 1 0.0 4.9692405399 1.2368763398 11.8295251724
26 1 1 0.0 4.9809821389 3.6946721741 11.8597298115
27 1 1 0.0 4.986461537 6.1554733801 11.8584013419
28 1 1 0.0 4.9749286263 8.6208975498 11.8201233595
29 1 1 0.0 4.9786173162 11.0877251076 11.8643601631
30 1 1 0.0 4.977595824 13.5357427255 11.7791678593
31 1 1 0.0 5.6918481658 0.0114094282 11.7956429049
32 1 1 0.0 5.6922444056 2.4672601627 11.883836639
33 1 1 0.0 5.6971955017 4.9238869868 11.8495804625
34 1 1 0.0 5.6918179773 7.3900188416 11.9020115793
35 1 1 0.0 5.6894627047 9.8545231177 11.8500135338
36 1 1 0.0 5.7025073662 12.3111698872 11.8664868486
37 1 1 0.0 7.1157062712 0.0272287829 11.8340430458
38 1 1 0.0 7.1172857162 2.4853211648 11.8404874654
39 1 1 0.0 7.1179273713 4.9460410558 11.947806683
40 1 1 0.0 7.1125664003 7.4018111214 11.9593161158
41 1 1 0.0 7.1082739593 9.8627848863 11.9726768179
42 1 1 0.0 7.1195003891 12.3052392019 11.9692907804
43 1 1 0.0 7.836271985 1.2619598746 11.7721652152
44 1 1 0.0 7.8309009974 3.7171689043 11.9156399448
45 1 1 0.0 7.8322428467 6.1804803721 11.9441414719
46 1 1 0.0 7.8150981755 8.6359845245 11.9669562231
47 1 1 0.0 7.8228382297 11.0855621003 12.1040274201
48 1 1 0.0 7.8213619552 13.5480263718 11.9314316998
49 1 1 0.0 9.2609639902 1.284830127 11.8411143662
50 1 1 0.0 9.2490807101 3.7414525883 11.8669982164
51 1 1 0.0 9.2503873825 6.1993807701 11.9537001268
52 1 1 0.0 9.2324478921 8.6538465591 12.0105990489
53 1 1 0.0 9.2370636819 11.1206891884 12.1950585187
54 1 1 0.0 9.24333333 13.5763487096 12.0514956158
55 1 1 0.0 9.955553078 0.0571393027 12.0247326163
56 1 1 0.0 9.9729191965 2.5199131221 11.8907500773
57 1 1 0.0 9.9650355862 4.9728449907 11.9140119216
58 1 1 0.0 9.9578644512 7.4355291456 11.9573241232
59 1 1 0.0 9.9456141645 9.8871350046 12.1224987308
60 1 1 0.0 9.9536472057 12.3519480952 12.1630305998
61 1 1 0.0 11.3720063414 0.0856438098 12.1882656971
62 1 1 0.0 11.3884892581 2.5524964344 12.0515282402
63 1 1 0.0 11.3795868853 5.0134611211 11.9705566806
64 1 1 0.0 11.3775841362 7.477657514 11.9793620341
65 1 1 0.0 11.3705156838 9.907037529 12.0997582087
66 1 1 0.0 11.3688013089 12.3880235669 12.2150738
67 1 1 0.0 12.0824561703 1.3179499974 12.194386716
68 1 1 0.0 12.0931305123 3.7873764729 12.0337254998
69 1 1 0.0 12.0937874718 6.2478514152 11.9574811041
70 1 1 0.0 12.0964462263 8.6930963917 12.0215871727
71 1 1 0.0 12.0766010169 11.1548501131 12.1340069779
72 1 1 0.0 12.079876798 13.6177990441 12.3146610594
73 1 1 0.0 13.4958296724 1.356704313 12.3238699249
74 1 1 0.0 13.5083401559 3.8125981135 12.1128028363
75 1 1 0.0 13.5133837472 6.2537614396 11.9976101872
76 1 1 0.0 13.5188736648 8.7149857214 11.9435538248
77 1 1 0.0 13.4936678267 11.203157466 12.0671876865
78 1 1 0.0 13.5071317216 13.6427688968 12.3949907893
79 1 1 0.0 14.1982898585 0.1245869974 12.4372901392
80 1 1 0.0 14.1969940619 2.5833367105 12.2323829027
81 1 1 0.0 14.2286370453 5.0396384953 12.0964164547
82 1 1 0.0 14.2279424612 7.4863004488 11.92687252
83 1 1 0.0 14.2045998375 9.9841385083 11.922754739
84 1 1 0.0 14.2140071128 12.4281094641 12.2114554623
85 1 1 0.0 15.6193228594 0.1461020728 12.3948393554
86 1 1 0.0 15.6151179195 2.6005386367 12.2470838309
87 1 1 0.0 15.6427524229 5.0512455756 12.180668936
88 1 1 0.0 15.6451326725 7.5015392543 11.894203053
89 1 1 0.0 15.6285032455 9.9986677538 11.8729418071
90 1 1 0.0 15.6348140574 12.4446403977 12.1605520035
91 1 1 0.0 16.3211241421 1.378208321 12.3098588229
92 1 1 0.0 16.3361415954 3.816048782 12.2266283062
93 1 1 0.0 16.3527475398 6.2751643052 12.0695548792
94 1 1 0.0 16.3279363677 8.7553905766 11.8577563387
95 1 1 0.0 16.352742557 11.2256025366 12.0147642404
96 1 1 0.0 16.3250258905 13.674805805 12.3223425853
97 1 1 0.0 17.7354020307 1.3698691657 12.3164955348
98 1 1 0.0 17.7502400313 3.8194740476 12.2437614995
99 1 1 0.0 17.7787196524 6.2756520476 12.0804818058
100 1 1 0.0 17.7607054691 8.7551567109 11.9008379334
101 1 1 0.0 17.7725393632 11.2281366008 12.0646223462
102 1 1 0.0 17.7432334178 13.6735019441 12.3358956882
103 1 1 0.0 18.4383817654 0.1529222644 12.3939038351
104 1 1 0.0 18.4540714261 2.5939359535 12.2643593123
105 1 1 0.0 18.4716916333 5.0432918121 12.1883296782
106 1 1 0.0 18.4725364419 7.5217183761 12.0363547857
107 1 1 0.0 18.4750675203 9.9904406609 12.0039774384
108 1 1 0.0 18.465810151 12.4613811399 12.2226331999
109 1 1 0.0 19.8679372991 0.1443699744 12.4091060865
110 1 1 0.0 19.8823377289 2.5922381368 12.2920238126
111 1 1 0.0 19.8838323274 5.0679726204 12.2061137779
112 1 1 0.0 19.8905295884 7.544084957 12.1594440623
113 1 1 0.0 19.8939718751 10.0008794929 12.1525378499
114 1 1 0.0 19.8857717528 12.463511535 12.2789277053
115 1 1 0.0 20.5954619464 1.366265663 12.4234160887
116 1 1 0.0 20.5902344472 3.8322867079 12.2835537441
117 1 1 0.0 20.5935637432 6.3143429374 12.2450063521
118 1 1 0.0 20.622183038 8.7708384198 12.2125797535
119 1 1 0.0 20.5984372551 11.2416465204 12.2376301027
120 1 1 0.0 20.5956595173 13.6846501676 12.3734048551
121 1 1 0.0 22.0165858805 1.3968518314 12.5576728047
122 1 1 0.0 22.0006724201 3.8484923932 12.4436448769
123 1 1 0.0 22.0155242814 6.3192073914 12.3501903261
124 1 1 0.0 22.0350462971 8.7901317763 12.317972668
125 1 1 0.0 22.0206993775 11.2483175373 12.2203881365
126 1 1 0.0 22.0194449004 13.6992938469 12.4123208455
127 1 1 0.0 22.712734551 0.166223308 12.5430223608
128 1 1 0.0 22.7243742806 2.636159003 12.5932114288
129 1 1 0.0 22.7077500246 5.0838242358 12.4521228686
130 1 1 0.0 22.7403839105 7.5512070596 12.415254892
131 1 1 0.0 22.7287713526 10.0246453621 12.3104171349
132 1 1 0.0 22.7383866108 12.4822361002 12.2895578113
133 1 1 0.0 24.1310840079 0.1856878055 12.6018341555
134 1 1 0.0 24.1345836639 2.6660915603 12.7484230691
135 1 1 0.0 24.1286716113 5.1011742031 12.6142151255
136 1 1 0.0 24.1579317458 7.5585580236 12.5611619672
137 1 1 0.0 24.1469038335 10.0282600871 12.501111307
138 1 1 0.0 24.150327599 12.4794987116 12.4403286766
139 1 1 0.0 24.7665157849 1.4176196068 12.8068360861
140 1 1 0.0 24.8013963436 3.8912762504 12.7414592821
141 1 1 0.0 24.8290864577 6.3249370286 12.6758700236
142 1 1 0.0 24.7981098014 8.8023176527 12.6607861071
143 1 1 0.0 24.8004127288 11.2510589306 12.605008584
144 1 1 0.0 24.8061076438 13.7142430308 12.5005552452
145 1 2 0.0 25.8456027049 1.4106341801 12.9604435549
146 1 2 0.0 25.893976339 3.9187099314 12.7947792076
147 1 2 0.0 25.8549005664 8.8054929886 12.8882248138
148 1 2 0.0 25.8527361008 11.2588599708 12.8777443299
149 1 2 0.0 25.8952617231 13.7248649522 12.5097022386
150 1 2 0.0 26.3789548232 7.00072526 14.006745697
151 1 1 0.0 26.2951504783 6.3249469574 13.1488162125
152 1 2 0.0 26.565204339 5.3051882405 13.5022056886
153 1 2 0.0 27.0971237953 7.65153827 11.576415411
154 1 1 0.0 27.4093759979 6.7595969247 12.1125330691
155 1 2 0.0 27.5460052519 5.9551914876 11.395185327
156 1 2 0.0 28.5863729214 7.9425160775 13.4613775575
157 1 1 0.0 28.753008694 7.0522732239 12.8776645799
158 1 2 0.0 28.8965912123 6.2409701221 13.5901071666
159 1 2 0.0 29.9339053688 8.0587211823 11.3556171404
160 1 1 0.0 30.0504392897 7.223039464 12.0444416439
161 1 2 0.0 30.2470790612 6.3208343824 11.4641900224
162 1 2 0.0 31.0008982097 7.2398633853 14.0226048944
163 1 1 0.0 31.273329891 7.4874095088 12.9881678598
164 1 2 0.0 31.5223355422 8.5371388769 12.9484308454
165 1 2 0.0 32.6728403765 6.7475698514 11.4833587504
166 1 1 0.0 32.493536118 6.6335081113 12.5517379027
167 1 2 0.0 32.2720624479 5.583915766 12.7172694752
168 1 2 0.0 33.6394994634 6.7876369621 14.3910517901
169 1 1 0.0 33.7878592101 7.0296422896 13.340993455
170 1 2 0.0 33.9426618994 8.0971368167 13.2708088271
171 1 1 0.0 35.0428145186 6.3177058913 12.8303430233
172 1 2 0.0 34.9756329102 6.195441169 11.7469486405
173 1 2 0.0 35.0773818039 5.2992679564 13.260067799
174 1 2 0.0 36.1614821152 7.9232275833 13.8341820544
175 1 1 0.0 36.3574929691 7.057167819 13.1726022904
176 1 2 0.0 36.8064334954 7.4351543553 12.2536202404
177 1 2 0.0 36.9949810173 5.0916656719 13.7705718452
178 1 2 0.0 37.38175822 6.3131192577 14.9243909613
179 1 1 0.0 37.3565040035 6.0999310261 13.8668386811
180 1 2 0.0 37.659440005 1.2779433067 13.1566188601
181 1 2 0.0 37.6842362014 3.7008897846 13.1126438415
182 1 2 0.0 37.7843451474 8.5827270817 13.6159782144
183 1 2 0.0 37.7348595542 11.0038921989 13.3505457502
184 1 2 0.0 37.6911066134 13.5017001679 13.357076949
185 1 1 0.0 38.7361594835 1.2472808292 13.0179196342
186 1 1 0.0 38.7702083237 3.6957137216 13.0323269586
187 1 1 0.0 38.7825031655 6.1377599036 13.2733344209
188 1 1 0.0 38.8419080912 8.5755877069 13.3558196745
189 1 1 0.0 38.813059094 11.0289846986 13.1735626727
190 1 1 0.0 38.7648638657 13.5186721264 13.1445138693
191 1 1 0.0 39.3825385554 14.7717032363 12.9910155443
192 1 1 0.0 39.4229820158 2.4675804223 12.9408665491
193 1 1 0.0 39.4373742271 4.9214104443 13.013358375
194 1 1 0.0 39.4917305117 7.348296414 13.1910261921
195 1 1 0.0 39.4759956067 9.8033996982 13.1431640384
196 1 1 0.0 39.4361940487 12.2801427215 13.0639351927
197 1 1 0.0 40.8031393843 0.0210507761 12.7896770655
198 1 1 0.0 40.8290845792 2.4793490913 12.7416435761
199 1 1 0.0 40.8564629613 4.929803093 12.8296375629
200 1 1 0.0 40.8955006248 7.348714609 12.939628461
201 1 1 0.0 40.8716190245 9.8080954916 12.8712604043
202 1 1 0.0 40.8348839736 12.2883335138 12.7907716202
203 1 1 0.0 41.5246670872 1.2427013716 12.629952292
204 1 1 0.0 41.543792549 3.7088410874 12.6590555655
205 1 1 0.0 41.6037650033 6.1369587045 12.7663453079
206 1 1 0.0 41.5886509369 8.5773854416 12.8092137515
207 1 1 0.0 41.5407933214 11.047986272 12.6789415309
208 1 1 0.0 41.4984467031 13.5346063131 12.6791729486
209 1 1 0.0 42.9232474194 1.2353186674 12.3040752021
210 1 1 0.0 42.943497639 3.6773673187 12.3885255279
211 1 1 0.0 42.9991701773 6.1423254317 12.4598287708
212 1 1 0.0 42.9742820434 8.5862154084 12.5400818937
213 1 1 0.0 42.940239175 11.0520948617 12.4710764535
214 1 1 0.0 42.8920690042 13.5355718808 12.3921044557
215 1 1 0.0 43.6087327954 -0.0093122265 12.2005548798
216 1 1 0.0 43.6359064504 2.4598411512 12.1972711644
217 1 1 0.0 43.673491973 4.9009163562 12.3318648354
218 1 1 0.0 43.6938831752 7.3700030943 12.3800033126
219 1 1 0.0 43.6701557556 9.8253359945 12.4048327795
220 1 1 0.0 43.6098380076 12.2978088391 12.3112972237
221 1 1 0.0 45.0279852231 14.7334889687 12.0309350672
222 1 1 0.0 45.0534381777 2.4342746873 12.0207312558
223 1 1 0.0 45.0899240758 4.8929712505 12.1780040687
224 1 1 0.0 45.1026503915 7.3775377723 12.2153453998
225 1 1 0.0 45.083697012 9.8201353646 12.2455347393
226 1 1 0.0 45.0271466082 12.2847241716 12.1604320391
227 1 1 0.0 45.7556329266 1.2007275945 11.9667628047
228 1 1 0.0 45.7815707612 3.6639497932 12.0511768735
229 1 1 0.0 45.7917227832 6.1252138263 12.1313490427
230 1 1 0.0 45.8168984397 8.6031161159 12.1384043136
231 1 1 0.0 45.7662485121 11.0581431116 12.1528654625
232 1 1 0.0 45.7500551387 13.508766617 12.0524250041
233 1 1 0.0 47.1872866906 1.1946088008 11.8941287593
234 1 1 0.0 47.1991453741 3.6709757729 11.953267771
235 1 1 0.0 47.2158117665 6.1306329535 12.0554617577
236 1 1 0.0 47.2350938545 8.5971754418 12.0256603588
237 1 1 0.0 47.184858403 11.0543175631 12.0830959925
238 1 1 0.0 47.174347059 13.5049593775 11.982141308
239 1 1 0.0 47.9007767253 14.7240077012 11.838764785
240 1 1 0.0 47.8918151912 2.438524136 11.8355864395
241 1 1 0.0 47.924561547 4.891890602 11.9747693467
242 1 1 0.0 47.9373590003 7.3595948072 11.964703041
243 1 1 0.0 47.9176512369 9.8389311356 12.0081821173
244 1 1 0.0 47.8892006015 12.2833640093 11.9976457863
245 1 1 0.0 49.3119627394 14.7362204525 11.653247797
246 1 1 0.0 49.3039593214 2.4410217752 11.6980666337
247 1 1 0.0 49.3370152201 4.9009663162 11.8062809908
248 1 1 0.0 49.3516048136 7.3592112628 11.8208059829
249 1 1 0.0 49.3248930025 9.8376919109 11.8427600613
250 1 1 0.0 49.2990446262 12.3084502979 11.8213993085
251 1 1 0.0 50.0220744041 1.2139587888 11.6124099597
252 1 1 0.0 50.0281465145 3.6646591007 11.6942701406
253 1 1 0.0 50.04549615 6.1283667431 11.7191445387
254 1 1 0.0 50.0271775755 8.6098031329 11.7499654743
255 1 1 0.0 50.0152447579 11.0806250941 11.7760036609
256 1 1 0.0 50.0209439946 13.5081210695 11.613543764
257 1 1 0.0 51.4378927983 1.2061153631 11.5844411024
258 1 1 0.0 51.4397238453 3.6638623943 11.5463842556
259 1 1 0.0 51.4518229218 6.1302539555 11.5718600598
260 1 1 0.0 51.446521779 8.587707308 11.6318216202
261 1 1 0.0 51.4293019153 11.0631969467 11.6105275793
262 1 1 0.0 51.432751627 13.5121589558 11.5158818039
263 1 1 0.0 52.160416023 14.7422630244 11.5553169957
264 1 1 0.0 52.149911551 2.4359770778 11.4941261714
265 1 1 0.0 52.1425859899 4.899615006 11.496596573
266 1 1 0.0 52.1489205107 7.3602223325 11.563481967
267 1 1 0.0 52.144984238 9.8272958327 11.5654406084
268 1 1 0.0 52.1595224665 12.2846798271 11.5283732418
269 1 1 0.0 53.58321989 14.7459621939 11.5397612723
270 1 1 0.0 53.5685453719 2.4350689409 11.4706923377
271 1 1 0.0 53.563441202 4.8941605179 11.4456714926
272 1 1 0.0 53.5676855213 7.3697298664 11.5200311614
273 1 1 0.0 53.5728504366 9.8475933277 11.4458861451
274 1 1 0.0 53.5864732385 12.3010079487 11.494343325
275 1 1 0.0 54.2934353246 1.2222353098 11.5373684552
276 1 1 0.0 54.2797307163 3.6671057201 11.4669544283
277 1 1 0.0 54.2798567325 6.1303873022 11.5260962554
278 1 1 0.0 54.2807996958 8.6079378538 11.4683569098
279 1 1 0.0 54.3072365723 11.0765485501 11.4366864321
280 1 1 0.0 54.315536452 13.5278459009 11.5398576254
281 1 1 0.0 55.7131224515 1.2388698449 11.5963810114
282 1 1 0.0 55.6956913932 3.6939323763 11.5749396537
283 1 1 0.0 55.706096873 6.1551305802 11.5542072429
284 1 1 0.0 55.7034685483 8.6211084815 11.5520128283
285 1 1 0.0 55.7258891811 11.0835756771 11.5398734791
286 1 1 0.0 55.7386815377 13.537267248 11.6172055093
287 1 1 0.0 56.4411876051 14.7731791155 11.6098709678
288 1 1 0.0 56.4204368867 2.4754580523 11.6758219917
289 1 1 0.0 56.4083860811 4.9215601411 11.5512003184
290 1 1 0.0 56.4234877045 7.3850373655 11.5795495245
291 1 1 0.0 56.4259183164 9.8478293109 11.5996839794
292 1 1 0.0 56.4392991343 12.306572549 11.6871826249
293 1 1 0.0 57.8607481076 14.7717348554 11.6785730076
294 1 1 0.0 57.8504979013 2.45391288 11.7296321098
295 1 1 0.0 57.83039916 4.8925008259 11.6492671329
296 1 1 0.0 57.8510761958 7.3659972472 11.6989016463
297 1 1 0.0 57.843369878 9.8419073534 11.6937665158
298 1 1 0.0 57.8558536605 12.3098470095 11.7586331077
299 1 1 0.0 58.5713589821 1.2339197258 11.7453274127
300 1 1 0.0 58.5687490057 3.6764988869 11.705014486
301 1 1 0.0 58.5546970247 6.1220573295 11.7381912861
302 1 1 0.0 58.5596481279 8.6060663058 11.7530695412
303 1 1 0.0 58.5615119263 11.0719534967 11.7520887205
304 1 1 0.0 58.5640647976 13.5436119779 11.7310550431
305 1 1 0.0 59.983883 1.2299508 11.8000002
306 1 1 0.0 59.983883 3.6900001 11.8000002
307 1 1 0.0 59.983883 6.1500492 11.8000002
308 1 1 0.0 59.983883 8.609951 11.8000002
309 1 1 0.0 59.983883 11.0699997 11.8000002
310 1 1 0.0 59.983883 13.5300493 11.8000002
311 1 1 0.0 60.6935501 0.0 11.8000002
312 1 1 0.0 60.6935501 2.4600492 11.8000002
313 1 1 0.0 60.6935501 4.919951 11.8000002
314 1 1 0.0 60.6935501 7.3800001 11.8000002
315 1 1 0.0 60.6935501 9.8400498 11.8000002
316 1 1 0.0 60.6935501 12.2999506 11.8000002
317 1 1 0.0 62.1141625 0.0 11.8000002
318 1 1 0.0 62.1141625 2.4600492 11.8000002
319 1 1 0.0 62.1141625 4.919951 11.8000002
320 1 1 0.0 62.1141625 7.3800001 11.8000002
321 1 1 0.0 62.1141625 9.8400498 11.8000002
322 1 1 0.0 62.1141625 12.2999506 11.8000002
323 1 1 0.0 62.8244667 1.2299508 11.8000002
324 1 1 0.0 62.8244667 3.6900001 11.8000002
325 1 1 0.0 62.8244667 6.1500492 11.8000002
326 1 1 0.0 62.8244667 8.609951 11.8000002
327 1 1 0.0 62.8244667 11.0699997 11.8000002
328 1 1 0.0 62.8244667 13.5300493 11.8000002
