# LAMMPS data file written by OVITO Pro 3.5.4
328 atoms
2 atom types
0.0 63.5335007 xlo xhi
0.0 14.7600003 ylo yhi
0.0 25.0 zlo zhi

Masses

1 12.0107  # C
2 1.00794  # H

Atoms  # full

1 1 1 0.0 0.7103046 1.2299508 11.8000002
2 1 1 0.0 0.7103046 3.6900001 11.8000002
3 1 1 0.0 0.7103046 6.1500492 11.8000002
4 1 1 0.0 0.7103046 8.609951 11.8000002
5 1 1 0.0 0.7103046 11.0699997 11.8000002
6 1 1 0.0 0.7103046 13.5300493 11.8000002
7 1 1 0.0 1.4199738 0.0 11.8000002
8 1 1 0.0 1.4199738 2.4600492 11.8000002
9 1 1 0.0 1.4199738 4.919951 11.8000002
10 1 1 0.0 1.4199738 7.3800001 11.8000002
11 1 1 0.0 1.4199738 9.8400498 11.8000002
12 1 1 0.0 1.4199738 12.2999506 11.8000002
13 1 1 0.0 2.8405832 0.0 11.8000002
14 1 1 0.0 2.8405832 2.4600492 11.8000002
15 1 1 0.0 2.8405832 4.919951 11.8000002
16 1 1 0.0 2.8405832 7.3800001 11.8000002
17 1 1 0.0 2.8405832 9.8400498 11.8000002
18 1 1 0.0 2.8405832 12.2999506 11.8000002
19 1 1 0.0 3.5508874 1.2299508 11.8000002
20 1 1 0.0 3.5508874 3.6900001 11.8000002
21 1 1 0.0 3.5508874 6.1500492 11.8000002
22 1 1 0.0 3.5508874 8.609951 11.8000002
23 1 1 0.0 3.5508874 11.0699997 11.8000002
24 1 1 0.0 3.5508874 13.5300493 11.8000002
25 1 1 0.0 4.9767820187 1.2208506009 11.7899238314
26 1 1 0.0 4.9685260876 3.6666270377 11.797432129
27 1 1 0.0 4.9737177066 6.1360247512 11.7846897767
28 1 1 0.0 4.9555130417 8.608376995 11.7815931116
29 1 1 0.0 4.9662921866 11.0475598608 11.8054864503
30 1 1 0.0 4.9687769241 13.5187566175 11.8210118211
31 1 1 0.0 5.6852923547 -0.0206149221 11.7906160768
32 1 1 0.0 5.6883466218 2.4463250723 11.7977594865
33 1 1 0.0 5.6661052687 4.8946677119 11.7744419465
34 1 1 0.0 5.6729108111 7.3745704125 11.7504287883
35 1 1 0.0 5.6816591591 9.8207790929 11.8239102949
36 1 1 0.0 5.6607006597 12.2749926748 11.8343061016
37 1 1 0.0 7.1026417828 -0.0633983276 11.7485718989
38 1 1 0.0 7.1079730244 2.4144455555 11.8048793504
39 1 1 0.0 7.0805698416 4.8629717076 11.8711445146
40 1 1 0.0 7.0922454571 7.3176195131 11.8305681166
41 1 1 0.0 7.0938238901 9.7675738563 11.8349678054
42 1 1 0.0 7.0720652257 12.2207868434 11.7740993928
43 1 1 0.0 7.8080720747 1.1679829222 11.7551978995
44 1 1 0.0 7.8144985007 3.6422524731 11.8864709501
45 1 1 0.0 7.8026626525 6.0858235679 11.8881362732
46 1 1 0.0 7.8085588243 8.5388817803 11.8602035141
47 1 1 0.0 7.8014905413 10.9912471755 11.8215634256
48 1 1 0.0 7.779449817 13.4447346966 11.752980963
49 1 1 0.0 9.2270850313 1.1279548616 11.8143775302
50 1 1 0.0 9.2315818888 3.604650062 11.9572331786
51 1 1 0.0 9.2254841102 6.0459791621 11.9442221676
52 1 1 0.0 9.2274617752 8.4953162834 11.9063638863
53 1 1 0.0 9.2164345645 10.947975462 11.8910250771
54 1 1 0.0 9.2005361994 13.4092884506 11.7944806507
55 1 1 0.0 9.9109720946 -0.1204352078 11.8456586765
56 1 1 0.0 9.9315202933 2.3619576158 11.9373509152
57 1 1 0.0 9.9504990802 4.8306718065 12.0068568999
58 1 1 0.0 9.9471572254 7.2700020862 12.0153467635
59 1 1 0.0 9.9327564406 9.7225171529 11.9555658541
60 1 1 0.0 9.9235113318 12.1774804672 11.8538263518
61 1 1 0.0 11.3230306365 -0.115100391 11.9732647672
62 1 1 0.0 11.340860363 2.3569049481 12.0513599903
63 1 1 0.0 11.3695496382 4.8174561912 12.160415742
64 1 1 0.0 11.3548525636 7.2794835139 12.2543619931
65 1 1 0.0 11.3266058435 9.7419400718 12.2279919965
66 1 1 0.0 11.3456377532 12.1760979707 12.0062567934
67 1 1 0.0 12.030180166 1.124041311 12.0646399999
68 1 1 0.0 12.0502010542 3.5822468555 12.1371169394
69 1 1 0.0 12.0770699752 6.0464385525 12.3299742452
70 1 1 0.0 12.0470775217 8.5190395574 12.3689457516
71 1 1 0.0 12.0554707757 10.9587035016 12.2356097998
72 1 1 0.0 12.0284397117 13.420291163 12.0556741587
73 1 1 0.0 13.4455401383 1.1187735396 12.1725337258
74 1 1 0.0 13.450834713 3.5799327235 12.3087041469
75 1 1 0.0 13.4817356731 6.0362825471 12.4983054205
76 1 1 0.0 13.4662386314 8.5066977437 12.4884503101
77 1 1 0.0 13.4857479757 10.9657776229 12.3493129732
78 1 1 0.0 13.4506171228 13.4153239996 12.1847072262
79 1 1 0.0 14.1561027353 -0.1132440671 12.198710641
80 1 1 0.0 14.1513120767 2.3406537637 12.3023398381
81 1 1 0.0 14.166060716 4.792102513 12.479660749
82 1 1 0.0 14.1715153891 7.2749981256 12.5606513283
83 1 1 0.0 14.1981076343 9.7364183155 12.4718679173
84 1 1 0.0 14.1966581527 12.2088582556 12.2802436806
85 1 1 0.0 15.5747748505 -0.1136132653 12.3333386931
86 1 1 0.0 15.5607532274 2.3417350298 12.5159515024
87 1 1 0.0 15.5840728 4.8027542097 12.6139774839
88 1 1 0.0 15.5931197546 7.2594092914 12.6235915044
89 1 1 0.0 15.6155764545 9.7252675569 12.5538214286
90 1 1 0.0 15.6200767104 12.1871468859 12.4136727024
91 1 1 0.0 16.278964674 1.1251995172 12.4940341388
92 1 1 0.0 16.2705047796 3.5671868417 12.6547859686
93 1 1 0.0 16.2964193159 6.0224334076 12.6769610672
94 1 1 0.0 16.314237663 8.4913469029 12.6342934563
95 1 1 0.0 16.3189024438 10.9573225104 12.5565706975
96 1 1 0.0 16.3186254011 13.4341828012 12.423986263
97 1 1 0.0 17.6918485295 1.1214298992 12.5833560628
98 1 1 0.0 17.6869120048 3.5579046642 12.7487964028
99 1 1 0.0 17.704119229 6.0056560441 12.8341995099
100 1 1 0.0 17.7287624658 8.4764755912 12.7764644465
101 1 1 0.0 17.7347577356 10.9307482522 12.7200201152
102 1 1 0.0 17.7264046876 13.4138268102 12.6124680737
103 1 1 0.0 18.4098852238 -0.1104179283 12.6737725902
104 1 1 0.0 18.4175240539 2.340598262 12.6822338249
105 1 1 0.0 18.4069393405 4.769527958 12.875430465
106 1 1 0.0 18.4258496732 7.2407717243 12.8886696798
107 1 1 0.0 18.4409330048 9.7016360267 12.7908449367
108 1 1 0.0 18.4274781098 12.1763083851 12.7773048098
109 1 1 0.0 19.8134751478 -0.1105959633 12.8917685086
110 1 1 0.0 19.8235275486 2.3360581097 12.8682415503
111 1 1 0.0 19.8278914213 4.7769146479 12.9837957453
112 1 1 0.0 19.8524805613 7.2331903584 12.9510447498
113 1 1 0.0 19.8559118699 9.6979790045 12.8967255616
114 1 1 0.0 19.8479088708 12.1951327332 12.9130942152
115 1 1 0.0 20.5287792729 1.1170996681 12.976391673
116 1 1 0.0 20.5498838453 3.5506790507 12.9894009591
117 1 1 0.0 20.5528035038 5.9993566649 13.0172676062
118 1 1 0.0 20.57299726 8.4627512522 12.9826084977
119 1 1 0.0 20.5527084651 10.9413807804 12.9906422602
120 1 1 0.0 20.5409146073 13.4372169106 13.0247788076
121 1 1 0.0 21.9466231315 1.1076730493 13.1529752144
122 1 1 0.0 21.9746913973 3.559523276 13.1443167495
123 1 1 0.0 21.9560300584 6.0124956396 13.175021222
124 1 1 0.0 21.9741338953 8.4820854416 13.1902359344
125 1 1 0.0 21.9635627161 10.9601651061 13.1613529461
126 1 1 0.0 21.9545647955 13.4413356538 13.2042104793
127 1 1 0.0 22.6608700729 -0.0994881558 13.284824388
128 1 1 0.0 22.6898361812 2.3294250353 13.2364747029
129 1 1 0.0 22.6698905081 4.787651504 13.3007670148
130 1 1 0.0 22.670976383 7.2364056436 13.2610838919
131 1 1 0.0 22.6473265107 9.7141748015 13.2590697263
132 1 1 0.0 22.6614445906 12.1960235531 13.273334077
133 1 1 0.0 24.0851078807 -0.102720591 13.4608543232
134 1 1 0.0 24.1095622586 2.3342786988 13.3889365971
135 1 1 0.0 24.0737008948 4.7998471607 13.554875198
136 1 1 0.0 24.0754525942 7.2246608036 13.5098969501
137 1 1 0.0 24.0464009641 9.7005772294 13.4254088051
138 1 1 0.0 24.0737273706 12.1832490521 13.483489014
139 1 1 0.0 24.7864132156 1.1086257985 13.4237013718
140 1 1 0.0 24.7511293949 3.5712293878 13.5830918804
141 1 1 0.0 24.7610571993 6.0146278962 13.7263227385
142 1 1 0.0 24.7044575824 8.4672082974 13.5682314809
143 1 1 0.0 24.6962510516 10.9298776362 13.5188242998
144 1 1 0.0 24.7212141523 13.4207611602 13.6334066359
145 1 2 0.0 25.8706608916 1.0949997234 13.5785724273
146 1 2 0.0 25.8291452829 3.5779024771 13.6281277815
147 1 2 0.0 25.7634535135 8.4979692667 13.8689243032
148 1 2 0.0 25.7745009259 10.9092116803 13.6399702854
149 1 2 0.0 25.7913408778 13.4214282308 13.832464788
150 1 2 0.0 26.3957791533 7.0640015107 14.6039616611
151 1 1 0.0 26.172993562 6.0592242598 14.3304192881
152 1 2 0.0 26.1818462209 5.4863526744 15.2504407911
153 1 2 0.0 27.0312408547 5.591796485 12.3671909542
154 1 1 0.0 27.3255809149 5.5589152572 13.4139923125
155 1 2 0.0 27.5601870388 4.5218206918 13.6602323026
156 1 2 0.0 28.627967324 7.2225123664 12.8577494766
157 1 1 0.0 28.6189544156 6.4377965093 13.5996144166
158 1 2 0.0 28.5749174343 6.8999470775 14.5801904898
159 1 2 0.0 29.8938021419 5.0078476983 12.5413251591
160 1 1 0.0 29.9214693749 5.583084939 13.4803328643
161 1 2 0.0 29.9396052273 4.8732247189 14.3054079438
162 1 2 0.0 31.2727099048 7.0381343744 14.4119074024
163 1 1 0.0 31.2354836631 6.4294144433 13.5148520255
164 1 2 0.0 31.2828674219 7.1075801633 12.6515304431
165 1 2 0.0 32.4056898511 4.7698944792 12.7301634294
166 1 1 0.0 32.498782244 5.5052290504 13.5249130867
167 1 2 0.0 32.5070356465 4.9428287273 14.4555162363
168 1 2 0.0 33.7107733635 7.2837714188 13.759238535
169 1 1 0.0 33.8305807392 6.2815218289 13.3537427564
170 1 2 0.0 34.0401513456 6.4061095299 12.2838083927
171 1 1 0.0 35.0005924091 5.5510837874 14.0306594624
172 1 2 0.0 34.9302955587 4.4773696825 13.8739164933
173 1 2 0.0 34.9478892171 5.7062363804 15.0892364723
174 1 2 0.0 36.2603880168 7.0380952001 13.0358295536
175 1 1 0.0 36.3759620883 6.0478429093 13.479934238
176 1 2 0.0 36.7387294986 5.3612481208 12.7205426155
177 1 2 0.0 37.2628014513 5.2495498674 15.2804795864
178 1 2 0.0 37.2088687022 7.0021521477 15.2169963739
179 1 1 0.0 37.4176692335 6.1194095639 14.6255756933
180 1 2 0.0 37.8187394654 1.2015492268 14.3863164972
181 1 2 0.0 37.8002533006 3.6877462862 14.2660893943
182 1 2 0.0 37.8240612413 8.5786002744 14.1745735086
183 1 2 0.0 37.7520232097 11.0895793067 13.8135183216
184 1 2 0.0 37.7722487068 13.4914816352 14.142164225
185 1 1 0.0 38.8868124777 1.1983336022 14.1528848257
186 1 1 0.0 38.8899044351 3.6717650851 14.1119520024
187 1 1 0.0 38.8675623852 6.1376462963 14.1507033341
188 1 1 0.0 38.8878685517 8.5892869671 14.0007262489
189 1 1 0.0 38.8474175648 11.0646951798 13.847609541
190 1 1 0.0 38.8564358057 13.5068191467 14.0338685199
191 1 1 0.0 39.5305027315 14.7244175581 14.002147741
192 1 1 0.0 39.5396702777 2.4395423937 14.0571524788
193 1 1 0.0 39.5473577334 4.9110679835 14.0148189045
194 1 1 0.0 39.5536098915 7.3542171423 13.975777466
195 1 1 0.0 39.5018051896 9.8313810707 13.8154728725
196 1 1 0.0 39.5216707288 12.2908020979 13.8905484971
197 1 1 0.0 40.9431530174 -0.0128366556 13.7639018358
198 1 1 0.0 40.9529032945 2.4567520135 13.8564331244
199 1 1 0.0 40.9550736046 4.9374644317 13.8465415243
200 1 1 0.0 40.9631152606 7.3756401772 13.7767520709
201 1 1 0.0 40.9187229773 9.8340884418 13.6624493311
202 1 1 0.0 40.9408609691 12.285626069 13.7446573051
203 1 1 0.0 41.6413739787 1.216626376 13.6867340463
204 1 1 0.0 41.6464177608 3.7040897847 13.7599604786
205 1 1 0.0 41.6798351261 6.1534076397 13.7177700485
206 1 1 0.0 41.6430405084 8.6171881732 13.594554325
207 1 1 0.0 41.6337849134 11.0551283699 13.6499026085
208 1 1 0.0 41.6436646054 13.5157894648 13.6301844633
209 1 1 0.0 43.0438471457 1.2295669123 13.4334725564
210 1 1 0.0 43.0523532883 3.700400478 13.5522925175
211 1 1 0.0 43.0826512387 6.1538966386 13.526109071
212 1 1 0.0 43.0452041287 8.6227187129 13.3859646166
213 1 1 0.0 43.0366540744 11.0595738039 13.4409395646
214 1 1 0.0 43.0445625623 13.5278712629 13.3859393842
215 1 1 0.0 43.742597977 -0.0021424517 13.2617453888
216 1 1 0.0 43.7292275914 2.4637266076 13.3801713741
217 1 1 0.0 43.7716462184 4.9193076802 13.4447617943
218 1 1 0.0 43.7582675701 7.4032729164 13.3910074764
219 1 1 0.0 43.7548561074 9.8476276524 13.3027351829
220 1 1 0.0 43.7413494642 12.2886153183 13.3216241285
221 1 1 0.0 45.1527575788 14.7700319714 13.0685664856
222 1 1 0.0 45.1375822964 2.47217623 13.1786678945
223 1 1 0.0 45.1821503532 4.9198662863 13.2878673152
224 1 1 0.0 45.1627227542 7.4004209988 13.2424221059
225 1 1 0.0 45.1565893911 9.8632507314 13.1290008867
226 1 1 0.0 45.1463835604 12.3049703857 13.100295963
227 1 1 0.0 45.8459672337 1.256692217 13.0000583185
228 1 1 0.0 45.8694467486 3.6863250997 13.1541728781
229 1 1 0.0 45.8604789311 6.1614624258 13.1920730674
230 1 1 0.0 45.8514407944 8.6238916566 13.1021991152
231 1 1 0.0 45.8625875378 11.0854456669 12.9825196599
232 1 1 0.0 45.8332185687 13.5352346464 13.0268510669
233 1 1 0.0 47.2513694162 1.2719203761 12.7904407311
234 1 1 0.0 47.2707541747 3.7131366309 12.9016426503
235 1 1 0.0 47.2550244006 6.164776818 12.9793022409
236 1 1 0.0 47.2473940157 8.6388565661 12.878013697
237 1 1 0.0 47.2600369253 11.0921503305 12.7849200104
238 1 1 0.0 47.2399052292 13.5675830969 12.8529358928
239 1 1 0.0 47.9375585998 14.8025093702 12.7254544044
240 1 1 0.0 47.9656678535 2.4898591913 12.6984143215
241 1 1 0.0 47.97889585 4.9417990929 12.854929075
242 1 1 0.0 47.940498755 7.4000877954 12.8250016504
243 1 1 0.0 47.947532879 9.8675262611 12.7272290734
244 1 1 0.0 47.9425802167 12.3387549165 12.7580386328
245 1 1 0.0 49.3496991565 14.8216441882 12.5256150923
246 1 1 0.0 49.3681385941 2.5155233146 12.5228251312
247 1 1 0.0 49.376277738 4.967117739 12.6207113939
248 1 1 0.0 49.3461570345 7.423376287 12.6192185704
249 1 1 0.0 49.3533374466 9.8994544967 12.6258267567
250 1 1 0.0 49.3569310342 12.3659922771 12.6440621483
251 1 1 0.0 50.066965301 1.2852596668 12.4270581933
252 1 1 0.0 50.0726880644 3.7396127221 12.4751919664
253 1 1 0.0 50.0505388808 6.2009773919 12.496590032
254 1 1 0.0 50.0341471751 8.6610553595 12.53217668
255 1 1 0.0 50.0506065705 11.1285319377 12.5799775553
256 1 1 0.0 50.0632538585 13.5923145423 12.4986557178
257 1 1 0.0 51.4899704515 1.265988657 12.3087317844
258 1 1 0.0 51.488049908 3.7156716852 12.396826661
259 1 1 0.0 51.4551141448 6.1724433413 12.3445826879
260 1 1 0.0 51.4394154054 8.6381329089 12.347324906
261 1 1 0.0 51.4571178841 11.1120014966 12.4229959205
262 1 1 0.0 51.4776499729 13.5783196899 12.3164574445
263 1 1 0.0 52.2139606046 14.794245067 12.209668471
264 1 1 0.0 52.2123113384 2.490897402 12.3671585779
265 1 1 0.0 52.1863102131 4.9453687324 12.3775550931
266 1 1 0.0 52.1426765656 7.4092907124 12.2468136158
267 1 1 0.0 52.1425837835 9.8653978654 12.2839680087
268 1 1 0.0 52.1701547446 12.3354298776 12.3099717267
269 1 1 0.0 53.6411936233 14.7900480207 12.1290275281
270 1 1 0.0 53.6401502543 2.4841653668 12.3248755129
271 1 1 0.0 53.6057489508 4.9383240237 12.2905633203
272 1 1 0.0 53.5590648175 7.3909752519 12.1271792343
273 1 1 0.0 53.5608039019 9.8664073423 12.1509695247
274 1 1 0.0 53.5800109484 12.3384618496 12.1457056147
275 1 1 0.0 54.3638419157 1.2628679824 12.1641199506
276 1 1 0.0 54.3329969338 3.722975901 12.2588133291
277 1 1 0.0 54.2943119563 6.1722022659 12.175322581
278 1 1 0.0 54.2589253499 8.62631597 12.0650189413
279 1 1 0.0 54.2679639698 11.0980227224 12.0812561777
280 1 1 0.0 54.3286190013 13.5476929656 12.0458034036
281 1 1 0.0 55.7827009896 1.2595299238 12.0314706765
282 1 1 0.0 55.7408810513 3.7118593087 12.0993819093
283 1 1 0.0 55.7106636016 6.171397153 12.0402281453
284 1 1 0.0 55.6769245308 8.6195082091 11.9556856034
285 1 1 0.0 55.6861927637 11.0751170509 11.9255576027
286 1 1 0.0 55.7530449739 13.5414055068 11.9375857656
287 1 1 0.0 56.471155897 14.7798291946 11.9187561007
288 1 1 0.0 56.474116368 2.5019507505 12.0198574902
289 1 1 0.0 56.4357917671 4.943440648 12.0144543135
290 1 1 0.0 56.4166154938 7.4036664507 11.9547801665
291 1 1 0.0 56.4045593114 9.8420450111 11.9009811637
292 1 1 0.0 56.43461734 12.2892192225 11.8341529681
293 1 1 0.0 57.8799077145 14.7738362333 11.7585963995
294 1 1 0.0 57.8809340098 2.489455789 11.8832385131
295 1 1 0.0 57.8556239335 4.9199992734 11.9280900557
296 1 1 0.0 57.8366863815 7.3685348157 11.9026950573
297 1 1 0.0 57.8366632562 9.8201919077 11.8751300395
298 1 1 0.0 57.8604775595 12.2857789254 11.7339205154
299 1 1 0.0 58.569965283 1.2519073557 11.8088768619
300 1 1 0.0 58.5846482788 3.7123350992 11.8608324762
301 1 1 0.0 58.5609402697 6.1474023285 11.8659711054
302 1 1 0.0 58.557276572 8.5902128769 11.8948793008
303 1 1 0.0 58.5627394294 11.0493422878 11.796295412
304 1 1 0.0 58.5685324776 13.530366752 11.6836318454
305 1 1 0.0 59.983883 1.2299508 11.8000002
306 1 1 0.0 59.983883 3.6900001 11.8000002
307 1 1 0.0 59.983883 6.1500492 11.8000002
308 1 1 0.0 59.983883 8.609951 11.8000002
309 1 1 0.0 59.983883 11.0699997 11.8000002
310 1 1 0.0 59.983883 13.5300493 11.8000002
311 1 1 0.0 60.6935501 0.0 11.8000002
312 1 1 0.0 60.6935501 2.4600492 11.8000002
313 1 1 0.0 60.6935501 4.919951 11.8000002
314 1 1 0.0 60.6935501 7.3800001 11.8000002
315 1 1 0.0 60.6935501 9.8400498 11.8000002
316 1 1 0.0 60.6935501 12.2999506 11.8000002
317 1 1 0.0 62.1141625 0.0 11.8000002
318 1 1 0.0 62.1141625 2.4600492 11.8000002
319 1 1 0.0 62.1141625 4.919951 11.8000002
320 1 1 0.0 62.1141625 7.3800001 11.8000002
321 1 1 0.0 62.1141625 9.8400498 11.8000002
322 1 1 0.0 62.1141625 12.2999506 11.8000002
323 1 1 0.0 62.8244667 1.2299508 11.8000002
324 1 1 0.0 62.8244667 3.6900001 11.8000002
325 1 1 0.0 62.8244667 6.1500492 11.8000002
326 1 1 0.0 62.8244667 8.609951 11.8000002
327 1 1 0.0 62.8244667 11.0699997 11.8000002
328 1 1 0.0 62.8244667 13.5300493 11.8000002
