# LAMMPS data file written by OVITO Pro 3.5.4
328 atoms
2 atom types
0.0 63.5335007 xlo xhi
0.0 14.7600003 ylo yhi
0.0 25.0 zlo zhi

Masses

1 12.0107  # C
2 1.00794  # H

Atoms  # full

1 1 1 0.0 0.7103046 1.2299508 11.8000002
2 1 1 0.0 0.7103046 3.6900001 11.8000002
3 1 1 0.0 0.7103046 6.1500492 11.8000002
4 1 1 0.0 0.7103046 8.609951 11.8000002
5 1 1 0.0 0.7103046 11.0699997 11.8000002
6 1 1 0.0 0.7103046 13.5300493 11.8000002
7 1 1 0.0 1.4199738 0.0 11.8000002
8 1 1 0.0 1.4199738 2.4600492 11.8000002
9 1 1 0.0 1.4199738 4.919951 11.8000002
10 1 1 0.0 1.4199738 7.3800001 11.8000002
11 1 1 0.0 1.4199738 9.8400498 11.8000002
12 1 1 0.0 1.4199738 12.2999506 11.8000002
13 1 1 0.0 2.8405832 0.0 11.8000002
14 1 1 0.0 2.8405832 2.4600492 11.8000002
15 1 1 0.0 2.8405832 4.919951 11.8000002
16 1 1 0.0 2.8405832 7.3800001 11.8000002
17 1 1 0.0 2.8405832 9.8400498 11.8000002
18 1 1 0.0 2.8405832 12.2999506 11.8000002
19 1 1 0.0 3.5508874 1.2299508 11.8000002
20 1 1 0.0 3.5508874 3.6900001 11.8000002
21 1 1 0.0 3.5508874 6.1500492 11.8000002
22 1 1 0.0 3.5508874 8.609951 11.8000002
23 1 1 0.0 3.5508874 11.0699997 11.8000002
24 1 1 0.0 3.5508874 13.5300493 11.8000002
25 1 1 0.0 4.983040907 1.1987027211 11.8042664126
26 1 1 0.0 4.9855772279 3.6552132798 11.8376000784
27 1 1 0.0 4.9881272261 6.1356718452 11.7966147002
28 1 1 0.0 4.9713469287 8.5906764747 11.7085252729
29 1 1 0.0 4.9667895306 11.0323607143 11.7401886922
30 1 1 0.0 4.9606948686 13.4964295291 11.8093871619
31 1 1 0.0 5.6910678204 -0.049637395 11.7874345088
32 1 1 0.0 5.7039455101 2.4229078523 11.817458283
33 1 1 0.0 5.6927424133 4.8932222764 11.8434599084
34 1 1 0.0 5.6936220273 7.3700283203 11.7622346108
35 1 1 0.0 5.6896173496 9.8136284429 11.6531918509
36 1 1 0.0 5.6589129122 12.2627239225 11.7891529132
37 1 1 0.0 7.1245605239 -0.0601108929 11.8069276696
38 1 1 0.0 7.1251792464 2.4102417837 11.7891259895
39 1 1 0.0 7.1212292356 4.8921235285 11.8099303412
40 1 1 0.0 7.1131997273 7.366700361 11.8471677123
41 1 1 0.0 7.1182480849 9.8066938674 11.6700860786
42 1 1 0.0 7.0843825515 12.2631116243 11.7692608064
43 1 1 0.0 7.8344698855 1.1735964278 11.7646573371
44 1 1 0.0 7.8244738101 3.6526759249 11.7541390363
45 1 1 0.0 7.8162141886 6.1327156805 11.8902312181
46 1 1 0.0 7.8370160401 8.585897068 11.7623935936
47 1 1 0.0 7.8232522137 11.0440912491 11.7053390431
48 1 1 0.0 7.8369466662 13.4632922601 11.7740239669
49 1 1 0.0 9.2590193379 1.1965006422 11.7055177208
50 1 1 0.0 9.2448387267 3.6717714116 11.8120243033
51 1 1 0.0 9.2335829958 6.1361688617 11.9524852548
52 1 1 0.0 9.256414225 8.5760612701 11.8208973843
53 1 1 0.0 9.2601483184 11.0388998237 11.6597356184
54 1 1 0.0 9.2677246084 13.4760497489 11.6982605555
55 1 1 0.0 9.9673644865 -0.0395509564 11.6430829152
56 1 1 0.0 9.9623644322 2.4419618647 11.7654002431
57 1 1 0.0 9.9404950227 4.9076076252 11.9394108142
58 1 1 0.0 9.9636687207 7.3564335568 11.9258262671
59 1 1 0.0 9.9721937376 9.8048160006 11.7588498589
60 1 1 0.0 9.9972840602 12.2507186428 11.6782107522
61 1 1 0.0 11.3998046157 -0.0216952917 11.6452647301
62 1 1 0.0 11.3797989605 2.4593156694 11.8865423762
63 1 1 0.0 11.3668546026 4.9170799787 11.9986256553
64 1 1 0.0 11.3878512921 7.3766552767 12.002749488
65 1 1 0.0 11.3944711947 9.8283369301 11.8385889518
66 1 1 0.0 11.4165905923 12.2645998834 11.6562528273
67 1 1 0.0 12.0897779675 1.2293686837 11.7990744739
68 1 1 0.0 12.0827585959 3.6850561731 12.0249086586
69 1 1 0.0 12.0796032451 6.1449575356 12.005864644
70 1 1 0.0 12.1065495368 8.6097508578 11.9790820852
71 1 1 0.0 12.1207607789 11.043931548 11.7778358457
72 1 1 0.0 12.1324473061 13.5007424979 11.6451264426
73 1 1 0.0 13.5120479634 1.233724955 11.9170601816
74 1 1 0.0 13.5062583231 3.7059571175 12.0715715306
75 1 1 0.0 13.4968063367 6.156212476 12.010099973
76 1 1 0.0 13.5252255621 8.6210936602 12.0437451665
77 1 1 0.0 13.5380574995 11.050556121 11.8579761881
78 1 1 0.0 13.5529169457 13.5043964282 11.7593750138
79 1 1 0.0 14.2412579772 1.0815898551e-04 11.906500525
80 1 1 0.0 14.2160958697 2.4691603637 12.067719556
81 1 1 0.0 14.2045970089 4.9338174309 12.0546881841
82 1 1 0.0 14.2181862478 7.3843633352 12.0774129038
83 1 1 0.0 14.2548136205 9.837859712 12.0366006682
84 1 1 0.0 14.2652603774 12.269072882 11.868575325
85 1 1 0.0 15.6516062585 -0.0053695856 12.0972095089
86 1 1 0.0 15.6267746602 2.4665157665 12.2025143784
87 1 1 0.0 15.6290800602 4.9266227887 12.1603458107
88 1 1 0.0 15.6429198788 7.3799777603 12.1454517058
89 1 1 0.0 15.6829538028 9.8368994149 12.1473977727
90 1 1 0.0 15.6791411175 12.2820940996 12.0199755637
91 1 1 0.0 16.3235837135 1.2342283238 12.3098412993
92 1 1 0.0 16.3426388434 3.6978366544 12.252964089
93 1 1 0.0 16.346050763 6.1525082069 12.2287690298
94 1 1 0.0 16.3828885434 8.5965769998 12.1711388191
95 1 1 0.0 16.3897610248 11.0605389233 12.1652918986
96 1 1 0.0 16.3603997671 13.5257612016 12.1318656214
97 1 1 0.0 17.7158888692 1.1992066525 12.5947333484
98 1 1 0.0 17.7581976206 3.6839844501 12.4205630196
99 1 1 0.0 17.7658958095 6.1317381708 12.3899389736
100 1 1 0.0 17.7979908187 8.5828438661 12.3523603473
101 1 1 0.0 17.7836318064 11.0437036137 12.4154971637
102 1 1 0.0 17.738455055 13.5072021033 12.4757668675
103 1 1 0.0 18.4133241441 -0.0244806606 12.7126442419
104 1 1 0.0 18.4249062695 2.4416229183 12.6565528519
105 1 1 0.0 18.4827830051 4.9025152127 12.5122212057
106 1 1 0.0 18.4902210257 7.3507097626 12.5472315976
107 1 1 0.0 18.4757188369 9.8144981863 12.5449528424
108 1 1 0.0 18.4302335306 12.2782972083 12.6102184006
109 1 1 0.0 19.7900769705 -0.0167094456 13.06886945
110 1 1 0.0 19.8179521729 2.4583852472 12.9592853608
111 1 1 0.0 19.8553418869 4.9140249567 12.9200341797
112 1 1 0.0 19.8596832478 7.3652277499 12.9386260908
113 1 1 0.0 19.8322274171 9.8291567701 12.9471331024
114 1 1 0.0 19.7886054745 12.2839487652 13.0003148103
115 1 1 0.0 20.5006364953 1.2276230631 13.1596435397
116 1 1 0.0 20.5326507375 3.6792368073 13.1177264109
117 1 1 0.0 20.5604286451 6.1404347319 13.1019208678
118 1 1 0.0 20.5367650229 8.6076440276 13.1104804708
119 1 1 0.0 20.4858159785 11.0648258181 13.1750251548
120 1 1 0.0 20.4549394127 13.5037361999 13.2653525159
121 1 1 0.0 21.8641926657 1.2404613709 13.5697952014
122 1 1 0.0 21.9089349059 3.7087338567 13.4785973404
123 1 1 0.0 21.9329553762 6.1609421987 13.455246003
124 1 1 0.0 21.8998447235 8.6199812748 13.4946940796
125 1 1 0.0 21.8349983789 11.0868940305 13.6232437101
126 1 1 0.0 21.8138615648 13.5318802146 13.6683854273
127 1 1 0.0 22.5149516208 0.0040565089 13.7927566978
128 1 1 0.0 22.5720711688 2.4757210772 13.6986181448
129 1 1 0.0 22.6264862192 4.9270136065 13.6103745511
130 1 1 0.0 22.5933511113 7.3906324222 13.7013237716
131 1 1 0.0 22.5289929457 9.868824727 13.7756111294
132 1 1 0.0 22.4894710707 12.3052049246 13.903855719
133 1 1 0.0 23.8995493266 0.0012225521 14.1415484319
134 1 1 0.0 23.9726080086 2.4715442304 14.0330916354
135 1 1 0.0 24.007383409 4.9444552682 13.9810452425
136 1 1 0.0 23.9476392401 7.4120631302 14.1237372672
137 1 1 0.0 23.8696055543 9.8861789739 14.2440914214
138 1 1 0.0 23.8386867722 12.3138311518 14.3634635877
139 1 1 0.0 24.5894515581 1.2333223495 14.1863742307
140 1 1 0.0 24.6382581286 3.7015289003 14.1715441098
141 1 1 0.0 24.6285275775 6.1833598867 14.2679344975
142 1 1 0.0 24.5260516262 8.6695333804 14.3532246021
143 1 1 0.0 24.4709561446 11.0965391712 14.5684393025
144 1 1 0.0 24.4808460073 13.5374678025 14.4819516729
145 1 2 0.0 25.6735773082 1.2091271521 14.3612484178
146 1 2 0.0 25.6757638938 3.6970391348 14.5062042312
147 1 2 0.0 25.5717638071 8.6909239126 14.6497549977
148 1 2 0.0 25.4923502177 11.1070639311 14.9156515693
149 1 2 0.0 25.4971565927 13.5390853621 14.8706134398
150 1 2 0.0 26.0202211169 7.0000996388 15.6882209251
151 1 1 0.0 25.9653340822 6.1469367884 15.0315468462
152 1 2 0.0 25.942227362 5.2618886084 15.6612435247
153 1 2 0.0 27.0575808808 6.6479853786 13.2075810126
154 1 1 0.0 27.2397013694 6.1067385269 14.1416894794
155 1 2 0.0 27.4570177733 5.0801989022 13.8656544645
156 1 2 0.0 28.6005540409 7.7583134466 14.6130953562
157 1 1 0.0 28.4942032111 6.6960336373 14.869585632
158 1 2 0.0 28.3548675148 6.624924464 15.9457676529
159 1 2 0.0 29.6771622009 5.5367425204 13.4572337603
160 1 1 0.0 29.7752020314 5.9056351983 14.4725704261
161 1 2 0.0 29.8523120282 5.0124103725 15.1050482165
162 1 2 0.0 30.9658147919 7.4598715027 15.3969124085
163 1 1 0.0 31.0714080264 6.751992985 14.585612053
164 1 2 0.0 31.1637159028 7.3425813145 13.6733264474
165 1 2 0.0 32.213849753 4.9476212158 14.2143618789
166 1 1 0.0 32.331187439 5.8662073369 14.7872766656
167 1 2 0.0 32.3868087886 5.5491978262 15.8297925649
168 1 2 0.0 33.6256701553 7.6304309958 14.6631945557
169 1 1 0.0 33.6710856351 6.5844422846 14.378979953
170 1 2 0.0 33.7912246331 6.5385176084 13.3038462736
171 1 1 0.0 34.8874722406 5.8736808101 15.0915554934
172 1 2 0.0 34.6309581562 4.812999828 15.2517625575
173 1 2 0.0 34.9993262607 6.3187093799 16.0910318843
174 1 2 0.0 36.2239619634 6.7649617818 13.5936125067
175 1 1 0.0 36.2400104108 5.9710035716 14.326978207
176 1 2 0.0 36.4239147732 5.0339121433 13.7931263313
177 1 2 0.0 37.3136540827 5.5037443288 16.1265042088
178 1 2 0.0 37.2572346875 7.2040114909 15.7498543013
179 1 1 0.0 37.4142929998 6.2136558529 15.3211295479
180 1 2 0.0 37.8690763643 1.1858453538 15.0459453405
181 1 2 0.0 37.9324240668 3.6899459542 15.366841428
182 1 2 0.0 37.8842957318 8.6401425614 14.9510735581
183 1 2 0.0 37.9069767206 11.0327004002 14.8708046833
184 1 2 0.0 37.8868377138 13.4403107572 15.0693032749
185 1 1 0.0 38.960615536 1.1863276305 14.9727318931
186 1 1 0.0 38.9864440208 3.6860172201 15.1003426315
187 1 1 0.0 38.8804642365 6.1339447982 14.8009114421
188 1 1 0.0 38.9532991155 8.6003503421 14.728063504
189 1 1 0.0 38.9967596449 11.0397274636 14.801476952
190 1 1 0.0 38.9672805912 13.4744489062 14.9111741849
191 1 1 0.0 39.6126054564 14.7040321628 14.8847071093
192 1 1 0.0 39.6133095867 2.4310224796 14.9668555382
193 1 1 0.0 39.6057747236 4.9084545788 14.7952366284
194 1 1 0.0 39.5721220568 7.3510414503 14.6251667409
195 1 1 0.0 39.6382972818 9.811458071 14.6745454005
196 1 1 0.0 39.6581924478 12.2578945183 14.7702709493
197 1 1 0.0 41.025235134 -0.0571992422 14.737487276
198 1 1 0.0 41.0348856317 2.4221379142 14.781749529
199 1 1 0.0 41.0122393337 4.8810839073 14.5340888746
200 1 1 0.0 40.9887738564 7.328204419 14.4229683626
201 1 1 0.0 41.0329215705 9.7807973108 14.4682202339
202 1 1 0.0 41.061708726 12.2411888151 14.6170753341
203 1 1 0.0 41.7238494208 1.1818256621 14.7237433558
204 1 1 0.0 41.7226594131 3.6573543739 14.5847742222
205 1 1 0.0 41.7035749145 6.1037216212 14.3272651914
206 1 1 0.0 41.7229075224 8.543404432 14.3887538741
207 1 1 0.0 41.7508836983 11.0065179074 14.4539601704
208 1 1 0.0 41.7430554787 13.4866071237 14.5923445408
209 1 1 0.0 43.1434580357 1.1600438661 14.5297356999
210 1 1 0.0 43.1406808106 3.6484156166 14.4211866045
211 1 1 0.0 43.118789401 6.1040791604 14.1830032631
212 1 1 0.0 43.126054924 8.5435801324 14.2116238654
213 1 1 0.0 43.1564937243 10.9943951309 14.32065072
214 1 1 0.0 43.1479560901 13.4700187434 14.4018537655
215 1 1 0.0 43.8580163544 -0.0696000878 14.3911551891
216 1 1 0.0 43.8400992931 2.4033807097 14.4114002228
217 1 1 0.0 43.8501656855 4.8799774372 14.2470677572
218 1 1 0.0 43.841451506 7.323640228 14.0753050219
219 1 1 0.0 43.8396732465 9.77295764 14.1678240736
220 1 1 0.0 43.8499388614 12.2408096292 14.2799515128
221 1 1 0.0 45.266142364 14.6732922955 14.2002736799
222 1 1 0.0 45.2557698293 2.3979807664 14.2128894829
223 1 1 0.0 45.2582782028 4.8761694333 14.0481920966
224 1 1 0.0 45.2605639848 7.3332883969 13.8967356638
225 1 1 0.0 45.2423425855 9.7777669685 13.9454321895
226 1 1 0.0 45.2632877638 12.2273647182 14.1094515438
227 1 1 0.0 45.9620960091 1.1575888671 14.1187546452
228 1 1 0.0 45.9428191516 3.6341205871 14.0068184872
229 1 1 0.0 45.9627644557 6.0962917718 13.8306563301
230 1 1 0.0 45.9519710419 8.5595483311 13.7593408321
231 1 1 0.0 45.9572072289 11.0052715343 13.9031728712
232 1 1 0.0 45.9798052139 13.4533085045 14.0141634402
233 1 1 0.0 47.3648691225 1.153656643 13.8697832751
234 1 1 0.0 47.3406376505 3.6344674873 13.7404237925
235 1 1 0.0 47.3582734399 6.0923086523 13.5624043193
236 1 1 0.0 47.345253656 8.5524185632 13.4469953663
237 1 1 0.0 47.3485177001 10.9901160342 13.5917769966
238 1 1 0.0 47.3723838847 13.4579260539 13.6940584739
239 1 1 0.0 48.0731962383 14.6917982151 13.6637377336
240 1 1 0.0 48.0633596254 2.3955590717 13.7523851957
241 1 1 0.0 48.0498492422 4.8487327986 13.5426523723
242 1 1 0.0 48.052069368 7.3164221597 13.3565842718
243 1 1 0.0 48.0475116792 9.78248192 13.3648401444
244 1 1 0.0 48.0476263309 12.2266499795 13.4391677823
245 1 1 0.0 49.4566478968 14.6884852272 13.3375267538
246 1 1 0.0 49.4660490348 2.378062779 13.5220670344
247 1 1 0.0 49.4612458045 4.8320157637 13.3818420454
248 1 1 0.0 49.4627329619 7.2904539035 13.1595455379
249 1 1 0.0 49.423908891 9.7637160875 13.0606858984
250 1 1 0.0 49.4343295892 12.2211342731 13.1238764646
251 1 1 0.0 50.1583045208 1.1667235874 13.3001944183
252 1 1 0.0 50.1588531414 3.6005183738 13.3481882739
253 1 1 0.0 50.1539185239 6.0505313197 13.1829819061
254 1 1 0.0 50.1339011685 8.5283467843 12.9627075593
255 1 1 0.0 50.119123267 10.9945331959 12.9475251777
256 1 1 0.0 50.1200280229 13.4648788903 13.0152910316
257 1 1 0.0 51.5305623046 1.1573158132 12.9450120507
258 1 1 0.0 51.5473858764 3.5901543946 13.0399451175
259 1 1 0.0 51.551868605 6.0539721309 12.9348253453
260 1 1 0.0 51.5279887096 8.5364912276 12.7056181279
261 1 1 0.0 51.5118342905 11.0207356077 12.6768124934
262 1 1 0.0 51.5025731819 13.4747598067 12.6915825332
263 1 1 0.0 52.2066286126 14.7019283741 12.6504024414
264 1 1 0.0 52.2573720524 2.3755216615 12.855223061
265 1 1 0.0 52.2511261642 4.8139608067 12.8867593954
266 1 1 0.0 52.2164417977 7.2961956005 12.672796445
267 1 1 0.0 52.203689844 9.7890537327 12.5820302067
268 1 1 0.0 52.2035169935 12.2549296568 12.5364347706
269 1 1 0.0 53.6118077644 14.7043110626 12.3930722972
270 1 1 0.0 53.6479291461 2.3885193275 12.54238146
271 1 1 0.0 53.6474310207 4.8478251177 12.6324155056
272 1 1 0.0 53.6235357377 7.3232579728 12.5256147874
273 1 1 0.0 53.6143264376 9.8036997887 12.3741098715
274 1 1 0.0 53.6036166535 12.264286433 12.2923704183
275 1 1 0.0 54.3351114957 1.1660400591 12.3316694672
276 1 1 0.0 54.3376093576 3.6258017406 12.4425225116
277 1 1 0.0 54.3177399277 6.0906788828 12.517464398
278 1 1 0.0 54.3098703652 8.5602467287 12.3417192031
279 1 1 0.0 54.3100968389 11.0379733456 12.1805695781
280 1 1 0.0 54.3223969748 13.4858095137 12.2161551576
281 1 1 0.0 55.745514195 1.19413662 12.1203151509
282 1 1 0.0 55.7355825378 3.6364045345 12.1986061889
283 1 1 0.0 55.7086255388 6.1023979122 12.2584813533
284 1 1 0.0 55.7219130785 8.5669046087 12.1267370521
285 1 1 0.0 55.7202481205 11.0375712565 11.9985592689
286 1 1 0.0 55.7336592745 13.4959505815 12.0034273651
287 1 1 0.0 56.4486583842 14.7239203899 12.0009475627
288 1 1 0.0 56.461705204 2.4219576707 12.1017165564
289 1 1 0.0 56.4206517007 4.8785199135 12.1350964943
290 1 1 0.0 56.408497967 7.3281535202 12.1022710129
291 1 1 0.0 56.4208604141 9.8038377508 11.9829512939
292 1 1 0.0 56.4347703362 12.2614056411 11.8961875304
293 1 1 0.0 57.8624099156 14.7340050898 11.8885614391
294 1 1 0.0 57.8780157801 2.4322316271 12.0022010662
295 1 1 0.0 57.8356172322 4.8923770453 12.0074007136
296 1 1 0.0 57.8224035302 7.350215884 11.9457248159
297 1 1 0.0 57.8396057545 9.8123639347 11.8649784161
298 1 1 0.0 57.8529505706 12.2793355415 11.7928037826
299 1 1 0.0 58.571093076 1.2018402729 11.8876381428
300 1 1 0.0 58.5685760038 3.6725655754 11.9644172177
301 1 1 0.0 58.5423638562 6.1227303964 11.9020884831
302 1 1 0.0 58.5496056225 8.5797316644 11.8428745976
303 1 1 0.0 58.5620028192 11.0448064914 11.8181827462
304 1 1 0.0 58.5649968978 13.5087584927 11.8119731126
305 1 1 0.0 59.983883 1.2299508 11.8000002
306 1 1 0.0 59.983883 3.6900001 11.8000002
307 1 1 0.0 59.983883 6.1500492 11.8000002
308 1 1 0.0 59.983883 8.609951 11.8000002
309 1 1 0.0 59.983883 11.0699997 11.8000002
310 1 1 0.0 59.983883 13.5300493 11.8000002
311 1 1 0.0 60.6935501 0.0 11.8000002
312 1 1 0.0 60.6935501 2.4600492 11.8000002
313 1 1 0.0 60.6935501 4.919951 11.8000002
314 1 1 0.0 60.6935501 7.3800001 11.8000002
315 1 1 0.0 60.6935501 9.8400498 11.8000002
316 1 1 0.0 60.6935501 12.2999506 11.8000002
317 1 1 0.0 62.1141625 0.0 11.8000002
318 1 1 0.0 62.1141625 2.4600492 11.8000002
319 1 1 0.0 62.1141625 4.919951 11.8000002
320 1 1 0.0 62.1141625 7.3800001 11.8000002
321 1 1 0.0 62.1141625 9.8400498 11.8000002
322 1 1 0.0 62.1141625 12.2999506 11.8000002
323 1 1 0.0 62.8244667 1.2299508 11.8000002
324 1 1 0.0 62.8244667 3.6900001 11.8000002
325 1 1 0.0 62.8244667 6.1500492 11.8000002
326 1 1 0.0 62.8244667 8.609951 11.8000002
327 1 1 0.0 62.8244667 11.0699997 11.8000002
328 1 1 0.0 62.8244667 13.5300493 11.8000002
