# LAMMPS data file written by OVITO Pro 3.5.4
328 atoms
2 atom types
0.0 63.5335007 xlo xhi
0.0 14.7600003 ylo yhi
0.0 25.0 zlo zhi

Masses

1 12.0107  # C
2 1.00794  # H

Atoms  # full

1 1 1 0.0 0.7103046 1.2299508 11.8000002
2 1 1 0.0 0.7103046 3.6900001 11.8000002
3 1 1 0.0 0.7103046 6.1500492 11.8000002
4 1 1 0.0 0.7103046 8.609951 11.8000002
5 1 1 0.0 0.7103046 11.0699997 11.8000002
6 1 1 0.0 0.7103046 13.5300493 11.8000002
7 1 1 0.0 1.4199738 0.0 11.8000002
8 1 1 0.0 1.4199738 2.4600492 11.8000002
9 1 1 0.0 1.4199738 4.919951 11.8000002
10 1 1 0.0 1.4199738 7.3800001 11.8000002
11 1 1 0.0 1.4199738 9.8400498 11.8000002
12 1 1 0.0 1.4199738 12.2999506 11.8000002
13 1 1 0.0 2.8405832 0.0 11.8000002
14 1 1 0.0 2.8405832 2.4600492 11.8000002
15 1 1 0.0 2.8405832 4.919951 11.8000002
16 1 1 0.0 2.8405832 7.3800001 11.8000002
17 1 1 0.0 2.8405832 9.8400498 11.8000002
18 1 1 0.0 2.8405832 12.2999506 11.8000002
19 1 1 0.0 3.5508874 1.2299508 11.8000002
20 1 1 0.0 3.5508874 3.6900001 11.8000002
21 1 1 0.0 3.5508874 6.1500492 11.8000002
22 1 1 0.0 3.5508874 8.609951 11.8000002
23 1 1 0.0 3.5508874 11.0699997 11.8000002
24 1 1 0.0 3.5508874 13.5300493 11.8000002
25 1 1 0.0 4.9661906216 1.2102417794 11.8624285017
26 1 1 0.0 4.9812987018 3.6783339005 11.8380928555
27 1 1 0.0 4.9755299806 6.1310842689 11.8533222175
28 1 1 0.0 4.9631191595 8.6213026691 11.9202819454
29 1 1 0.0 4.9736661285 11.0774335017 11.8980102198
30 1 1 0.0 4.9623425637 13.5169758611 11.8242730184
31 1 1 0.0 5.6651780935 -0.0182317473 11.8685248387
32 1 1 0.0 5.6844507392 2.4359997783 11.8982170777
33 1 1 0.0 5.7035107422 4.9054940335 11.8530469584
34 1 1 0.0 5.667488993 7.3800542568 11.9227521107
35 1 1 0.0 5.6830158966 9.8480328043 11.9993823837
36 1 1 0.0 5.6848724177 12.3025432741 11.9218877414
37 1 1 0.0 7.0813717835 0.0050311834 12.0140511085
38 1 1 0.0 7.1046845257 2.4534895787 12.0036014453
39 1 1 0.0 7.1221088292 4.9090543811 11.958166311
40 1 1 0.0 7.0910388913 7.386145353 12.0168162232
41 1 1 0.0 7.106029668 9.8513230011 12.097573737
42 1 1 0.0 7.1036030043 12.3076149152 12.0505331244
43 1 1 0.0 7.8121866632 1.2293184711 12.0869194606
44 1 1 0.0 7.8296073948 3.6786602851 12.0709484686
45 1 1 0.0 7.800521519 6.1565270339 12.008404162
46 1 1 0.0 7.812998657 8.6169146503 12.0931512968
47 1 1 0.0 7.8219348311 11.0832891794 12.1376267635
48 1 1 0.0 7.8029089956 13.5436394829 12.1657673061
49 1 1 0.0 9.2357626066 1.2626959021 12.2417873992
50 1 1 0.0 9.2627287216 3.7111516781 12.1603487352
51 1 1 0.0 9.2310311057 6.1821843329 12.0878862616
52 1 1 0.0 9.2383460839 8.6447983871 12.157237213
53 1 1 0.0 9.2334942634 11.0996120697 12.3102291714
54 1 1 0.0 9.2118164982 13.5619511626 12.4261726647
55 1 1 0.0 9.9384419667 0.0295887488 12.3907508904
56 1 1 0.0 9.9826595019 2.4795543692 12.2548532448
57 1 1 0.0 9.9632613162 4.9543995207 12.1170560754
58 1 1 0.0 9.957655651 7.4102095228 12.1569066599
59 1 1 0.0 9.9465714793 9.8740208132 12.3050694245
60 1 1 0.0 9.9256330198 12.3346716858 12.4678982435
61 1 1 0.0 11.3660539645 0.0175335969 12.4605189309
62 1 1 0.0 11.4067060153 2.4749535482 12.3577418798
63 1 1 0.0 11.3828254167 4.9520382504 12.2267957841
64 1 1 0.0 11.3812502358 7.3969750937 12.2326797892
65 1 1 0.0 11.3613521441 9.8369780059 12.4345381156
66 1 1 0.0 11.3471507983 12.3008106557 12.5428031931
67 1 1 0.0 12.108905955 1.2296550064 12.4410002702
68 1 1 0.0 12.0939210025 3.7216215072 12.3515740927
69 1 1 0.0 12.110711721 6.1748163247 12.2503074725
70 1 1 0.0 12.0868273582 8.6221361184 12.3519878618
71 1 1 0.0 12.0616794889 11.0724985846 12.484774985
72 1 1 0.0 12.0666942879 13.5279645591 12.5482452892
73 1 1 0.0 13.5337718061 1.2173971649 12.4846574223
74 1 1 0.0 13.5201531698 3.7084739468 12.4073014706
75 1 1 0.0 13.5346882391 6.1668482494 12.2726106713
76 1 1 0.0 13.5119389454 8.6395929261 12.2927211711
77 1 1 0.0 13.4850232672 11.0659007362 12.3978309187
78 1 1 0.0 13.4975478928 13.532257897 12.5517189848
79 1 1 0.0 14.245545831 -0.0105034389 12.5120541597
80 1 1 0.0 14.2251133579 2.46519276 12.4657221255
81 1 1 0.0 14.2534347131 4.933403811 12.3471847209
82 1 1 0.0 14.2474761346 7.4073779119 12.2169883153
83 1 1 0.0 14.2301125115 9.8521187345 12.298970868
84 1 1 0.0 14.2029175815 12.2954799339 12.4848076093
85 1 1 0.0 15.6771917223 0.0016294277 12.4847942576
86 1 1 0.0 15.6572122153 2.4490124372 12.4464960601
87 1 1 0.0 15.6767281902 4.9092417069 12.3820843309
88 1 1 0.0 15.6729684298 7.4018273544 12.2585547071
89 1 1 0.0 15.6651586435 9.8674515847 12.3399664391
90 1 1 0.0 15.6358122502 12.316659482 12.4944550669
91 1 1 0.0 16.3803424682 1.2364508012 12.5545915764
92 1 1 0.0 16.3904302756 3.6739323093 12.4543191419
93 1 1 0.0 16.3843675944 6.1550030373 12.3807082965
94 1 1 0.0 16.3949640917 8.6402165857 12.2907089058
95 1 1 0.0 16.3678839064 11.0918086596 12.4893111388
96 1 1 0.0 16.3824976533 13.5271290389 12.5214347213
97 1 1 0.0 17.8021206483 1.2387414036 12.7185581722
98 1 1 0.0 17.8017206679 3.6953472935 12.6709770405
99 1 1 0.0 17.788227526 6.1533909819 12.5597923447
100 1 1 0.0 17.8104969802 8.6314775869 12.4596715373
101 1 1 0.0 17.7861438067 11.0925631661 12.6255753592
102 1 1 0.0 17.8121728154 13.5397735031 12.6542764461
103 1 1 0.0 18.522080704 0.0100379926 12.7370451756
104 1 1 0.0 18.5087655276 2.4639288467 12.8294501341
105 1 1 0.0 18.504795527 4.9302069664 12.6780569804
106 1 1 0.0 18.4973370563 7.3914337887 12.558247491
107 1 1 0.0 18.5041242487 9.8638967584 12.6349925361
108 1 1 0.0 18.5180463975 12.314071531 12.7194542121
109 1 1 0.0 19.9398175858 -2.4024249309e-04 12.8527782885
110 1 1 0.0 19.9295417421 2.45866046 12.9492258483
111 1 1 0.0 19.9309517654 4.9233500937 12.8037536598
112 1 1 0.0 19.9082622072 7.3784928533 12.7047177697
113 1 1 0.0 19.9020280978 9.8478007321 12.8107370353
114 1 1 0.0 19.9410805965 12.313457341 12.8036133417
115 1 1 0.0 20.6397133806 1.2289887227 12.9641866281
116 1 1 0.0 20.640359829 3.6909242654 12.9300850748
117 1 1 0.0 20.6416835132 6.1619330026 12.8029993644
118 1 1 0.0 20.6132645966 8.6146624127 12.8557474415
119 1 1 0.0 20.6337254123 11.0767843035 12.8408715126
120 1 1 0.0 20.6700147988 13.5479786166 12.8716846378
121 1 1 0.0 22.0460171016 1.2663237418 13.1024254519
122 1 1 0.0 22.0535847253 3.7187482012 13.0852956496
123 1 1 0.0 22.0556140956 6.1788924791 12.9726905587
124 1 1 0.0 22.0277761785 8.6419576386 12.9954561717
125 1 1 0.0 22.0553326445 11.1077796372 12.9220652737
126 1 1 0.0 22.0872219713 13.5742763866 12.9004909308
127 1 1 0.0 22.7891304836 0.0618360831 13.0551059825
128 1 1 0.0 22.7625933778 2.4911358504 13.2123523882
129 1 1 0.0 22.7501087789 4.9547098779 13.1294400262
130 1 1 0.0 22.759608089 7.4160926769 13.0986398729
131 1 1 0.0 22.7562826943 9.8694985764 13.0258706273
132 1 1 0.0 22.7761463305 12.3428875872 12.9394623077
133 1 1 0.0 24.2089082516 0.0681013303 13.168611851
134 1 1 0.0 24.1836110919 2.5036820701 13.3251048032
135 1 1 0.0 24.1607423398 4.9835766644 13.3781763305
136 1 1 0.0 24.149684233 7.4350418397 13.3808925612
137 1 1 0.0 24.1553754126 9.8960694753 13.277088081
138 1 1 0.0 24.1897819662 12.3448223211 13.0964699907
139 1 1 0.0 24.8741659176 1.2928456579 13.3281214296
140 1 1 0.0 24.8371884587 3.752153827 13.449751885
141 1 1 0.0 24.8213557988 6.2135668919 13.5772755311
142 1 1 0.0 24.7980163407 8.675127655 13.4477688108
143 1 1 0.0 24.8334410864 11.1144198342 13.2570189248
144 1 1 0.0 24.8515431785 13.5824379758 13.144143392
145 1 2 0.0 25.9503801969 1.2868416165 13.4836645958
146 1 2 0.0 25.9116401587 3.7695302699 13.6092454223
147 1 2 0.0 25.8681058118 8.6894632091 13.6546061939
148 1 2 0.0 25.909229225 11.1109344039 13.3857911946
149 1 2 0.0 25.9432180879 13.5630621031 13.2301770881
150 1 2 0.0 26.4636326726 7.1788705704 14.6015664025
151 1 1 0.0 26.2683614054 6.2250224284 14.1149209818
152 1 2 0.0 26.3744800467 5.4805431905 14.8912949192
153 1 2 0.0 27.3743298441 6.8555472496 12.345043013
154 1 1 0.0 27.3605309705 5.998748039 13.0231468121
155 1 2 0.0 27.149002868 5.0930524177 12.4454561229
156 1 2 0.0 29.0047005792 6.8043070414 14.1839754509
157 1 1 0.0 28.7653517429 5.8616239681 13.6937889115
158 1 2 0.0 28.7023349762 5.0828436245 14.4621849957
159 1 2 0.0 29.7593944884 5.8849794423 11.7456208458
160 1 1 0.0 29.9497296756 5.5134438864 12.7470376486
161 1 2 0.0 30.08160606 4.4340789589 12.693945227
162 1 2 0.0 31.0321261695 6.4090607028 14.3882506976
163 1 1 0.0 31.2285264749 6.1882204407 13.3268734777
164 1 2 0.0 31.3809866394 7.1488844706 12.8274348119
165 1 2 0.0 32.3924052569 4.55633687 12.460528623
166 1 1 0.0 32.5277500183 5.3425670991 13.2097272769
167 1 2 0.0 32.7047984848 4.8649853241 14.1695398453
168 1 2 0.0 33.4332200233 7.2706754276 12.7301375824
169 1 1 0.0 33.7561315478 6.2304521592 12.8419797562
170 1 2 0.0 34.1866596451 5.9195926936 11.8818966141
171 1 1 0.0 34.8383545035 6.1301660762 13.945784741
172 1 2 0.0 34.7066630092 5.1974471032 14.5023223698
173 1 2 0.0 34.7135028538 6.9502119273 14.6390560856
174 1 2 0.0 36.3795228583 7.0763795195 12.7534244516
175 1 1 0.0 36.2851127141 6.1777077895 13.3553089297
176 1 2 0.0 36.4390472908 5.3211958818 12.7119365899
177 1 2 0.0 37.1965398267 5.2891137243 15.0776128526
178 1 2 0.0 37.214318898 7.0721515377 15.1001971459
179 1 1 0.0 37.3742789019 6.1750432226 14.4770489906
180 1 2 0.0 37.8414992488 1.2348668222 14.2416874371
181 1 2 0.0 37.7857809224 3.707445497 14.0078741163
182 1 2 0.0 37.8584415642 8.6229623 14.3280868863
183 1 2 0.0 37.8572326524 11.0841923804 14.4006378314
184 1 2 0.0 37.9095195777 13.5895901711 14.5919432456
185 1 1 0.0 38.9009650791 1.2407983221 14.0174613475
186 1 1 0.0 38.8602466655 3.7041999097 13.8365628305
187 1 1 0.0 38.8458406994 6.1788813215 13.9998410448
188 1 1 0.0 38.9403347123 8.629926505 14.1669673466
189 1 1 0.0 38.9339439157 11.0940583962 14.2490880392
190 1 1 0.0 38.950157339 13.5644547927 14.263821557
191 1 1 0.0 39.5791804334 14.77812584 13.9859999786
192 1 1 0.0 39.5130560801 2.4633263884 13.7484132122
193 1 1 0.0 39.5069629801 4.9427076876 13.7902292335
194 1 1 0.0 39.5602904098 7.3860147783 13.9695545984
195 1 1 0.0 39.5942357698 9.8623671227 14.1328020594
196 1 1 0.0 39.5969890011 12.3270568343 14.1393663741
197 1 1 0.0 40.966866363 -0.0011345362 13.7001499928
198 1 1 0.0 40.9206162671 2.4665667701 13.5346372844
199 1 1 0.0 40.9105698086 4.9419295601 13.555842138
200 1 1 0.0 40.9643207391 7.3884353286 13.7153376195
201 1 1 0.0 40.9983063773 9.8607774649 13.883180593
202 1 1 0.0 40.9939516437 12.3261144795 13.8817017735
203 1 1 0.0 41.6316343999 1.2364251939 13.5044969529
204 1 1 0.0 41.6060716686 3.7033142805 13.4157809087
205 1 1 0.0 41.6400043341 6.1600564874 13.5069500335
206 1 1 0.0 41.6679026285 8.6229669638 13.6648200619
207 1 1 0.0 41.696707059 11.0986219637 13.7342367177
208 1 1 0.0 41.7072355487 13.5449440257 13.7296263134
209 1 1 0.0 43.0323350535 1.233044407 13.3134747924
210 1 1 0.0 43.0214655579 3.6961499936 13.2527657453
211 1 1 0.0 43.0383728517 6.1460452485 13.2922565702
212 1 1 0.0 43.0575264374 8.6156094457 13.3751937505
213 1 1 0.0 43.0865628852 11.0777670936 13.4469610881
214 1 1 0.0 43.0993326266 13.531475071 13.5003231429
215 1 1 0.0 43.7652399419 0.0172051145 13.3012876655
216 1 1 0.0 43.7249429014 2.466679608 13.1729969856
217 1 1 0.0 43.7392842426 4.9174954557 13.2018305014
218 1 1 0.0 43.7391110956 7.3781777385 13.198367362
219 1 1 0.0 43.7639119993 9.8386564687 13.2929256969
220 1 1 0.0 43.8019522909 12.308952456 13.3548938563
221 1 1 0.0 45.1674061826 14.7814870286 13.114945433
222 1 1 0.0 45.1346209865 2.4734481292 13.0345554818
223 1 1 0.0 45.146525175 4.9289601976 13.0279323738
224 1 1 0.0 45.1469932475 7.3844509715 12.9790276416
225 1 1 0.0 45.1557738838 9.8443807918 13.0498138235
226 1 1 0.0 45.1894489681 12.3102852194 13.0958276158
227 1 1 0.0 45.8712382962 1.2542303829 13.0047816147
228 1 1 0.0 45.8487558161 3.696245328 12.9459243066
229 1 1 0.0 45.8578543995 6.154548032 12.9078163068
230 1 1 0.0 45.8354056349 8.6178387565 12.9037066931
231 1 1 0.0 45.8575804651 11.0723184826 12.9653350202
232 1 1 0.0 45.8653615221 13.5484305154 13.0246823178
233 1 1 0.0 47.2763187161 1.2793546868 12.7682755631
234 1 1 0.0 47.2573776414 3.7264950134 12.7232656383
235 1 1 0.0 47.2599080081 6.1690580228 12.6796449328
236 1 1 0.0 47.2371072703 8.6255880311 12.7077533135
237 1 1 0.0 47.2639038051 11.0942479621 12.8191064575
238 1 1 0.0 47.2694073618 13.5588078023 12.8461192416
239 1 1 0.0 47.9737304309 14.7993923022 12.7158168503
240 1 1 0.0 47.9778575049 2.5071098556 12.6030734476
241 1 1 0.0 47.9685098836 4.9445629193 12.5632662805
242 1 1 0.0 47.9445975468 7.4002759236 12.5802307137
243 1 1 0.0 47.946182061 9.8568944647 12.7050369475
244 1 1 0.0 47.9674287409 12.3266922372 12.7520071437
245 1 1 0.0 49.3705778924 14.801192877 12.4526774572
246 1 1 0.0 49.3715776483 2.5088288384 12.3517120741
247 1 1 0.0 49.3633688942 4.9419447676 12.3138231962
248 1 1 0.0 49.3577036182 7.4124291162 12.4300890997
249 1 1 0.0 49.3602465716 9.871430379 12.5529733119
250 1 1 0.0 49.3723620396 12.3465219811 12.5413514476
251 1 1 0.0 50.0663594416 1.2650339654 12.2616655132
252 1 1 0.0 50.0755982045 3.7283518282 12.1935659767
253 1 1 0.0 50.0541324558 6.1820458143 12.2924611127
254 1 1 0.0 50.073447674 8.6496380111 12.4655422306
255 1 1 0.0 50.0680293682 11.1024293071 12.4702409444
256 1 1 0.0 50.070250644 13.5703429413 12.3458568663
257 1 1 0.0 51.4640053144 1.2454693618 11.9836864193
258 1 1 0.0 51.4767541629 3.7224326299 11.9830726498
259 1 1 0.0 51.4694202416 6.1648615698 12.1875903712
260 1 1 0.0 51.4917752835 8.6275134118 12.3754897465
261 1 1 0.0 51.4822219612 11.0965782834 12.3170801759
262 1 1 0.0 51.47624428 13.5646410686 12.1321608816
263 1 1 0.0 52.1798093285 14.7838779943 11.9292369779
264 1 1 0.0 52.1525079488 2.4806768308 11.8671613702
265 1 1 0.0 52.1698720314 4.9455515531 11.9928671697
266 1 1 0.0 52.1878383485 7.3878830997 12.2342757477
267 1 1 0.0 52.2078590844 9.8612917527 12.3234956689
268 1 1 0.0 52.1835821257 12.3348979488 12.1798118194
269 1 1 0.0 53.5950536468 14.7864941803 11.8352908309
270 1 1 0.0 53.5629176209 2.4769965343 11.7060051315
271 1 1 0.0 53.5759444969 4.9441016073 11.832071473
272 1 1 0.0 53.6051524272 7.3836539467 12.087228281
273 1 1 0.0 53.6261680447 9.8525433186 12.1886317282
274 1 1 0.0 53.6060260673 12.3259354251 12.0992419726
275 1 1 0.0 54.2833207226 1.2587908512 11.7238119471
276 1 1 0.0 54.2796791047 3.7086474486 11.6830631716
277 1 1 0.0 54.3034799564 6.1626883981 11.8799412983
278 1 1 0.0 54.3222170849 8.6161933974 12.0575492216
279 1 1 0.0 54.3246870354 11.0870459396 12.1249104348
280 1 1 0.0 54.2907649928 13.5586811827 11.9270546606
281 1 1 0.0 55.6991274986 1.2515451497 11.7222929811
282 1 1 0.0 55.7057534983 3.6878280358 11.6257512175
283 1 1 0.0 55.7168903569 6.1392283447 11.7289708154
284 1 1 0.0 55.7381190594 8.6015073724 11.9287710144
285 1 1 0.0 55.7374495659 11.0700843699 11.9954051327
286 1 1 0.0 55.7072110239 13.5533416664 11.8923730326
287 1 1 0.0 56.4073496672 14.7886933903 11.825820703
288 1 1 0.0 56.4219958 2.4674743436 11.672263166
289 1 1 0.0 56.4284234452 4.9121618376 11.624196211
290 1 1 0.0 56.4293628869 7.3669595221 11.7705117657
291 1 1 0.0 56.4521304806 9.8374370979 11.945691232
292 1 1 0.0 56.4199529349 12.315009984 11.905721309
293 1 1 0.0 57.8291890416 14.759525862 11.8443261129
294 1 1 0.0 57.838634273 2.4467571023 11.7458983744
295 1 1 0.0 57.851149287 4.9135242243 11.65263869
296 1 1 0.0 57.8492272077 7.3931094447 11.6893995979
297 1 1 0.0 57.8735089375 9.8588033695 11.8714583763
298 1 1 0.0 57.844724929 12.3121970974 11.8302660162
299 1 1 0.0 58.5586893269 1.2197415802 11.8197005459
300 1 1 0.0 58.5552763487 3.6783496242 11.7236127307
301 1 1 0.0 58.5632126883 6.1545760888 11.6705534818
302 1 1 0.0 58.5641261441 8.6225144687 11.7588362256
303 1 1 0.0 58.5686286494 11.0938682561 11.8506491318
304 1 1 0.0 58.5540505168 13.5372999866 11.8214543396
305 1 1 0.0 59.983883 1.2299508 11.8000002
306 1 1 0.0 59.983883 3.6900001 11.8000002
307 1 1 0.0 59.983883 6.1500492 11.8000002
308 1 1 0.0 59.983883 8.609951 11.8000002
309 1 1 0.0 59.983883 11.0699997 11.8000002
310 1 1 0.0 59.983883 13.5300493 11.8000002
311 1 1 0.0 60.6935501 0.0 11.8000002
312 1 1 0.0 60.6935501 2.4600492 11.8000002
313 1 1 0.0 60.6935501 4.919951 11.8000002
314 1 1 0.0 60.6935501 7.3800001 11.8000002
315 1 1 0.0 60.6935501 9.8400498 11.8000002
316 1 1 0.0 60.6935501 12.2999506 11.8000002
317 1 1 0.0 62.1141625 0.0 11.8000002
318 1 1 0.0 62.1141625 2.4600492 11.8000002
319 1 1 0.0 62.1141625 4.919951 11.8000002
320 1 1 0.0 62.1141625 7.3800001 11.8000002
321 1 1 0.0 62.1141625 9.8400498 11.8000002
322 1 1 0.0 62.1141625 12.2999506 11.8000002
323 1 1 0.0 62.8244667 1.2299508 11.8000002
324 1 1 0.0 62.8244667 3.6900001 11.8000002
325 1 1 0.0 62.8244667 6.1500492 11.8000002
326 1 1 0.0 62.8244667 8.609951 11.8000002
327 1 1 0.0 62.8244667 11.0699997 11.8000002
328 1 1 0.0 62.8244667 13.5300493 11.8000002
