# LAMMPS data file written by OVITO Pro 3.5.4
328 atoms
2 atom types
0.0 63.5335007 xlo xhi
0.0 14.7600003 ylo yhi
0.0 25.0 zlo zhi

Masses

1 12.0107  # C
2 1.00794  # H

Atoms  # full

1 1 1 0.0 0.7103046 1.2299508 11.8000002
2 1 1 0.0 0.7103046 3.6900001 11.8000002
3 1 1 0.0 0.7103046 6.1500492 11.8000002
4 1 1 0.0 0.7103046 8.609951 11.8000002
5 1 1 0.0 0.7103046 11.0699997 11.8000002
6 1 1 0.0 0.7103046 13.5300493 11.8000002
7 1 1 0.0 1.4199738 0.0 11.8000002
8 1 1 0.0 1.4199738 2.4600492 11.8000002
9 1 1 0.0 1.4199738 4.919951 11.8000002
10 1 1 0.0 1.4199738 7.3800001 11.8000002
11 1 1 0.0 1.4199738 9.8400498 11.8000002
12 1 1 0.0 1.4199738 12.2999506 11.8000002
13 1 1 0.0 2.8405832 0.0 11.8000002
14 1 1 0.0 2.8405832 2.4600492 11.8000002
15 1 1 0.0 2.8405832 4.919951 11.8000002
16 1 1 0.0 2.8405832 7.3800001 11.8000002
17 1 1 0.0 2.8405832 9.8400498 11.8000002
18 1 1 0.0 2.8405832 12.2999506 11.8000002
19 1 1 0.0 3.5508874 1.2299508 11.8000002
20 1 1 0.0 3.5508874 3.6900001 11.8000002
21 1 1 0.0 3.5508874 6.1500492 11.8000002
22 1 1 0.0 3.5508874 8.609951 11.8000002
23 1 1 0.0 3.5508874 11.0699997 11.8000002
24 1 1 0.0 3.5508874 13.5300493 11.8000002
25 1 1 0.0 4.9726293601 1.2361519589 11.8674944537
26 1 1 0.0 4.9750823481 3.6874170105 11.8460033768
27 1 1 0.0 4.9567217194 6.1520721394 11.7891002788
28 1 1 0.0 4.9679228226 8.6174086071 11.6996676192
29 1 1 0.0 4.9708415882 11.0907679058 11.7524673852
30 1 1 0.0 4.9677351612 13.5269665007 11.9421692994
31 1 1 0.0 5.6745086641 0.0044449467 11.991907822
32 1 1 0.0 5.6840244885 2.4641777936 11.8475801451
33 1 1 0.0 5.6515397928 4.9267198878 11.8603578913
34 1 1 0.0 5.6562566753 7.3800980291 11.7056999542
35 1 1 0.0 5.6832231914 9.8577277057 11.6961256725
36 1 1 0.0 5.69193493 12.3061888684 11.8987754421
37 1 1 0.0 7.0987024615 0.0293289572 11.9455730256
38 1 1 0.0 7.088077548 2.4772881203 11.9292841005
39 1 1 0.0 7.0635904908 4.9461357487 11.8964535575
40 1 1 0.0 7.0735907135 7.3939420116 11.7722466169
41 1 1 0.0 7.1079092888 9.8699945187 11.7675872255
42 1 1 0.0 7.1165390606 12.3347375174 11.8140903485
43 1 1 0.0 7.8135361947 1.2574782554 11.9644662635
44 1 1 0.0 7.7704381861 3.7164981881 11.9499290074
45 1 1 0.0 7.7791207094 6.1713700383 11.9108663436
46 1 1 0.0 7.7904560818 8.626962472 11.7964082532
47 1 1 0.0 7.8269824354 11.1027324602 11.7769234013
48 1 1 0.0 7.8269229027 13.5718560141 11.8600394924
49 1 1 0.0 9.2288556267 1.2708175921 11.9550010135
50 1 1 0.0 9.1905064974 3.7249291647 12.0325392816
51 1 1 0.0 9.1920472831 6.1826251829 12.0452709652
52 1 1 0.0 9.2004424116 8.6334051548 11.9270777907
53 1 1 0.0 9.2492010484 11.1125297091 11.8378441673
54 1 1 0.0 9.2481090999 13.5709205228 11.8613651931
55 1 1 0.0 9.9361875596 0.0445259565 11.9091133492
56 1 1 0.0 9.9196654253 2.5024775043 12.0322865568
57 1 1 0.0 9.9053773429 4.9565627275 12.1223689038
58 1 1 0.0 9.9051922111 7.4097114984 12.0587660814
59 1 1 0.0 9.9239687077 9.8601886276 11.9206306982
60 1 1 0.0 9.954534705 12.347813805 11.8547719401
61 1 1 0.0 11.3493750559 0.0645600805 11.9943248296
62 1 1 0.0 11.3385215427 2.5262593379 12.1304285637
63 1 1 0.0 11.3197840032 4.988652667 12.2045911358
64 1 1 0.0 11.324899899 7.4239010836 12.141271103
65 1 1 0.0 11.3371590746 9.867041171 12.0775268969
66 1 1 0.0 11.3666421661 12.3488624488 12.0166641111
67 1 1 0.0 12.0368364045 1.2950841612 12.1053650362
68 1 1 0.0 12.0365353772 3.7664301658 12.2494643801
69 1 1 0.0 12.0426801007 6.19773487 12.2053419798
70 1 1 0.0 12.0527301697 8.6416004279 12.214726047
71 1 1 0.0 12.035994249 11.1046855262 12.150488714
72 1 1 0.0 12.0509541456 13.591028355 12.0950262328
73 1 1 0.0 13.4431485134 1.308407533 12.3001862442
74 1 1 0.0 13.4435024469 3.7670771428 12.346164471
75 1 1 0.0 13.4480855712 6.2116758219 12.3125343048
76 1 1 0.0 13.4690773379 8.6711152487 12.386874842
77 1 1 0.0 13.4322195685 11.1311846269 12.3909281146
78 1 1 0.0 13.4473530668 13.6087989863 12.3113761594
79 1 1 0.0 14.1453484178 0.0866297973 12.3841611057
80 1 1 0.0 14.131769203 2.5292325899 12.4377670946
81 1 1 0.0 14.1677854752 4.9949461258 12.3596684497
82 1 1 0.0 14.1544359607 7.4360976557 12.4570134622
83 1 1 0.0 14.1460446409 9.9084940979 12.5422618653
84 1 1 0.0 14.1288793497 12.3750053213 12.463314418
85 1 1 0.0 15.5420964739 0.0866437204 12.602577366
86 1 1 0.0 15.5421652157 2.5368127863 12.6358564198
87 1 1 0.0 15.5609730132 4.9880624797 12.6284659395
88 1 1 0.0 15.5486688384 7.4207352666 12.7118616046
89 1 1 0.0 15.5415256401 9.9010617965 12.8218904097
90 1 1 0.0 15.53464024 12.383456394 12.6941237889
91 1 1 0.0 16.2557868253 1.3174183883 12.7017666067
92 1 1 0.0 16.2629916518 3.7574491283 12.7277250434
93 1 1 0.0 16.2897572569 6.2049608197 12.7463357661
94 1 1 0.0 16.2383583428 8.6544661782 12.869656658
95 1 1 0.0 16.2240221853 11.1442051919 12.8546368034
96 1 1 0.0 16.2354160729 13.6202153271 12.7312228285
97 1 1 0.0 17.6713321277 1.3090814269 12.7635770548
98 1 1 0.0 17.6912926695 3.7507329037 12.800447658
99 1 1 0.0 17.7109235418 6.2068012303 12.868828636
100 1 1 0.0 17.6597745288 8.6681593832 12.9804962221
101 1 1 0.0 17.6526425549 11.146795453 12.9127785572
102 1 1 0.0 17.6543087851 13.6271434293 12.8424125126
103 1 1 0.0 18.3778954671 0.0852769073 12.8162894756
104 1 1 0.0 18.4161314104 2.5170003484 12.8045336921
105 1 1 0.0 18.4346595096 4.9746949251 12.8535235745
106 1 1 0.0 18.3895179915 7.4496664116 13.0354341718
107 1 1 0.0 18.362721189 9.9162648371 12.9481800875
108 1 1 0.0 18.3519451628 12.3899669709 12.9212142802
109 1 1 0.0 19.7993082713 0.0994514131 12.8825627673
110 1 1 0.0 19.8409403838 2.5371505402 12.8474939615
111 1 1 0.0 19.8603398869 4.9871343946 12.9796270127
112 1 1 0.0 19.8098510314 7.4699321097 13.1453306428
113 1 1 0.0 19.7932584961 9.9461650334 13.0201046737
114 1 1 0.0 19.7748594384 12.4085335077 12.9594858216
115 1 1 0.0 20.5337682029 1.3063251952 12.9030467921
116 1 1 0.0 20.5793465192 3.7599622408 12.9246561299
117 1 1 0.0 20.5373490084 6.2399231819 13.1629858841
118 1 1 0.0 20.5073941792 8.7184736669 13.1953930775
119 1 1 0.0 20.498002591 11.1766325591 13.0212876568
120 1 1 0.0 20.5014869253 13.6229921385 12.9490647343
121 1 1 0.0 21.9492961165 1.317023356 13.0269156488
122 1 1 0.0 21.9951835127 3.78988775 13.0683035317
123 1 1 0.0 21.952328339 6.2376237746 13.3050097878
124 1 1 0.0 21.916673113 8.6827052544 13.3873647314
125 1 1 0.0 21.9153601339 11.1464397801 13.1883717516
126 1 1 0.0 21.9226332351 13.6126240006 13.0692512924
127 1 1 0.0 22.6530847827 0.0748524038 13.125810671
128 1 1 0.0 22.6665557088 2.5406846315 13.1333004581
129 1 1 0.0 22.6875843888 5.0206791142 13.2687180888
130 1 1 0.0 22.6479901728 7.4577365125 13.4881700569
131 1 1 0.0 22.6108967722 9.9291348433 13.4459684797
132 1 1 0.0 22.6161334363 12.3823464092 13.2356129846
133 1 1 0.0 24.0649667266 0.0659426745 13.35893285
134 1 1 0.0 24.0625563594 2.5404165643 13.4068630137
135 1 1 0.0 24.0700357242 4.996582559 13.6391203811
136 1 1 0.0 24.0482511595 7.4458737642 13.7641440992
137 1 1 0.0 24.0003059896 9.9322276852 13.7884895704
138 1 1 0.0 24.0065775827 12.3779140351 13.5520391003
139 1 1 0.0 24.7158014475 1.3036212817 13.4513888154
140 1 1 0.0 24.7049143402 3.7539144104 13.7013884583
141 1 1 0.0 24.7289636587 6.21405775 13.9200320855
142 1 1 0.0 24.6373206102 8.6950262621 13.969390553
143 1 1 0.0 24.6311143873 11.1748157754 13.9211963417
144 1 1 0.0 24.6942396628 13.6006640114 13.5911695947
145 1 2 0.0 25.8020992914 1.2903763818 13.6672049828
146 1 2 0.0 25.7536432691 3.7180381414 13.9881966226
147 1 2 0.0 25.682421346 8.71165986 14.307277562
148 1 2 0.0 25.6580715424 11.2046850267 14.2653186626
149 1 2 0.0 25.7484629976 13.585053288 13.8803072103
150 1 2 0.0 26.2186759843 7.1466762688 15.1434757701
151 1 1 0.0 26.1350665012 6.2483857103 14.5527279699
152 1 2 0.0 26.1856898007 5.4050835365 15.2476305072
153 1 2 0.0 27.5776096727 7.1541411509 13.2252688719
154 1 1 0.0 27.2933807689 6.1657566676 13.5544853882
155 1 2 0.0 26.9927794835 5.5985717072 12.6851002694
156 1 2 0.0 28.5344133471 5.5607861657 15.2487895161
157 1 1 0.0 28.5743229567 5.4949080352 14.1539258863
158 1 2 0.0 28.6002242112 4.4558858006 13.8682260424
159 1 2 0.0 29.6606131571 7.2797019245 13.6256335595
160 1 1 0.0 29.8525000943 6.2018166465 13.652193889
161 1 2 0.0 30.0372353359 5.8724836412 12.6243116741
162 1 2 0.0 30.9969345956 5.0037489931 15.0776954596
163 1 1 0.0 31.1254711509 5.9376806727 14.5322778526
164 1 2 0.0 31.2359256665 6.7348098132 15.2650748997
165 1 2 0.0 32.306502086 6.5108680411 12.8036770222
166 1 1 0.0 32.4258479422 5.8680959403 13.6831690401
167 1 2 0.0 32.5502781177 4.8498609552 13.3139633944
168 1 2 0.0 33.7532688659 5.9202686489 15.4467647498
169 1 1 0.0 33.7488356505 6.3155604252 14.4335155889
170 1 2 0.0 33.7716126257 7.4039421407 14.4916498252
171 1 1 0.0 34.995940726 5.7707594516 13.6569813191
172 1 2 0.0 34.7157285049 5.6705554272 12.6019825328
173 1 2 0.0 35.2313658795 4.7688052155 14.0330099885
174 1 2 0.0 35.987507749 7.691015658 13.8978809547
175 1 1 0.0 36.2948344388 6.6484260857 13.7224949401
176 1 2 0.0 36.7784817888 6.6069652768 12.7322759197
177 1 2 0.0 37.1084886474 5.1940680124 15.1000862875
178 1 2 0.0 37.2710577797 6.8511810949 15.6510646491
179 1 1 0.0 37.3542956333 6.2056263661 14.7794296648
180 1 2 0.0 37.7373500936 1.2889346181 14.3436009885
181 1 2 0.0 37.7166116151 3.7996685304 14.3106807061
182 1 2 0.0 37.7155430929 8.7192370861 13.9665487678
183 1 2 0.0 37.709574443 11.1393140815 13.9978947598
184 1 2 0.0 37.6758299562 13.597889395 13.8894515065
185 1 1 0.0 38.8103595399 1.2961884951 14.1432146389
186 1 1 0.0 38.8093252215 3.7849068545 14.1921667968
187 1 1 0.0 38.811204667 6.2347589795 14.2594594957
188 1 1 0.0 38.7996305591 8.7040403346 13.9311429087
189 1 1 0.0 38.7887489538 11.1445823377 13.8548468163
190 1 1 0.0 38.7652459651 13.610070312 13.8307408549
191 1 1 0.0 39.4451413066 14.8286941567 13.9286660383
192 1 1 0.0 39.4476112289 2.5389503186 14.0718758555
193 1 1 0.0 39.4808718754 5.0107586119 14.116565572
194 1 1 0.0 39.4500999368 7.4627228004 13.977150178
195 1 1 0.0 39.464639039 9.924667425 13.8454414866
196 1 1 0.0 39.4231685682 12.3782225369 13.6984539106
197 1 1 0.0 40.8467837329 0.0712355559 13.7037004032
198 1 1 0.0 40.8634815944 2.5564408764 13.8205173004
199 1 1 0.0 40.8887222461 5.0253362991 13.9326924001
200 1 1 0.0 40.8618587254 7.4705172672 13.8191355027
201 1 1 0.0 40.8785810843 9.9386132861 13.7110522135
202 1 1 0.0 40.8411916534 12.3869908651 13.5511196918
203 1 1 0.0 41.5450034564 1.3095668784 13.6533497647
204 1 1 0.0 41.5641736239 3.7931679724 13.7754312432
205 1 1 0.0 41.6035110967 6.2520898102 13.8462716949
206 1 1 0.0 41.5663235913 8.7035450095 13.6896084958
207 1 1 0.0 41.5680738309 11.1699199257 13.5535303097
208 1 1 0.0 41.5594105099 13.6135571806 13.5095897357
209 1 1 0.0 42.9580435408 1.3201964912 13.4474712121
210 1 1 0.0 42.9709021932 3.7756328684 13.5598072481
211 1 1 0.0 43.0114866874 6.2378601661 13.6208990985
212 1 1 0.0 42.9773669053 8.7100234525 13.5251293048
213 1 1 0.0 42.9783662802 11.1743417581 13.4028892909
214 1 1 0.0 42.9708200339 13.62173791 13.382648626
215 1 1 0.0 43.6721961555 0.0908291019 13.3254350985
216 1 1 0.0 43.6732574816 2.5421070257 13.4170876822
217 1 1 0.0 43.6961527894 4.9987167927 13.4668402229
218 1 1 0.0 43.6882295964 7.4814894334 13.4558626448
219 1 1 0.0 43.677909739 9.9430228202 13.3618090344
220 1 1 0.0 43.6853328577 12.4005100069 13.3104688745
221 1 1 0.0 45.0789927681 14.8462217135 13.1354442077
222 1 1 0.0 45.0880517252 2.5439386284 13.2038688851
223 1 1 0.0 45.1058084166 4.9996296078 13.2440272908
224 1 1 0.0 45.0916571095 7.4642406896 13.2312640279
225 1 1 0.0 45.087365797 9.9364515789 13.1722544306
226 1 1 0.0 45.091598462 12.3915688949 13.1615610725
227 1 1 0.0 45.786763067 1.316322695 13.0381029005
228 1 1 0.0 45.8072257976 3.7726243937 13.11704462
229 1 1 0.0 45.8006282073 6.2328721367 13.1430890087
230 1 1 0.0 45.7877043033 8.6933704974 13.0794033337
231 1 1 0.0 45.8067368862 11.1578284571 13.0750226809
232 1 1 0.0 45.7934587699 13.6176702605 13.0603762094
233 1 1 0.0 47.190671467 1.304402046 12.7933187458
234 1 1 0.0 47.2103608656 3.7636430124 12.8594421411
235 1 1 0.0 47.2060992169 6.2228258549 12.9050063134
236 1 1 0.0 47.2010747601 8.6863227123 12.8678164742
237 1 1 0.0 47.2189484502 11.1307888692 12.9153593622
238 1 1 0.0 47.2077773647 13.5981355218 12.8780484775
239 1 1 0.0 47.8988349748 14.8296194643 12.7246789295
240 1 1 0.0 47.8972711657 2.5324150499 12.699080651
241 1 1 0.0 47.9219393712 4.9912957557 12.7711159964
242 1 1 0.0 47.9107443973 7.4507625835 12.7856834976
243 1 1 0.0 47.9334421136 9.9044430511 12.808235758
244 1 1 0.0 47.9120348358 12.3618204862 12.7802153404
245 1 1 0.0 49.3114984466 14.7985079789 12.5200716026
246 1 1 0.0 49.3137909804 2.517044124 12.5154577237
247 1 1 0.0 49.3266879622 4.9769285514 12.5150455262
248 1 1 0.0 49.3243745214 7.4367889102 12.6179467839
249 1 1 0.0 49.3484413461 9.8897073184 12.6333858158
250 1 1 0.0 49.3124230848 12.3469432447 12.5472629238
251 1 1 0.0 50.0027568689 1.2679279146 12.4432773653
252 1 1 0.0 50.016799373 3.7472432829 12.3842659175
253 1 1 0.0 50.0455082547 6.2118827042 12.4828872157
254 1 1 0.0 50.0496805349 8.6630650926 12.5555873438
255 1 1 0.0 50.0407523748 11.125502985 12.4627847003
256 1 1 0.0 50.0239408335 13.5674058193 12.4185808427
257 1 1 0.0 51.4162991975 1.2604953364 12.2751002254
258 1 1 0.0 51.433785103 3.7298002603 12.246977925
259 1 1 0.0 51.4581774009 6.1964399618 12.3029490637
260 1 1 0.0 51.4682312522 8.6553894268 12.3970426821
261 1 1 0.0 51.4537401345 11.0944871541 12.26800756
262 1 1 0.0 51.4364720919 13.5454632306 12.2491599278
263 1 1 0.0 52.1325068827 14.7903863406 12.2037010491
264 1 1 0.0 52.1256938594 2.4904415784 12.2058604458
265 1 1 0.0 52.1480877485 4.9574396571 12.188331082
266 1 1 0.0 52.1670801297 7.4226199316 12.2975467103
267 1 1 0.0 52.1747266051 9.8720318216 12.2386461116
268 1 1 0.0 52.1608869304 12.3173617685 12.1542269267
269 1 1 0.0 53.548859174 14.7472360466 12.0697067094
270 1 1 0.0 53.5403060928 2.4531584446 12.0857870822
271 1 1 0.0 53.5681853286 4.9193176883 12.0765733829
272 1 1 0.0 53.5860510149 7.3847494884 12.1875398854
273 1 1 0.0 53.5875630593 9.8338848308 12.0400411333
274 1 1 0.0 53.5804126871 12.284122052 12.0124945772
275 1 1 0.0 54.2553184709 1.220118308 12.0510221681
276 1 1 0.0 54.2656590004 3.6739411018 12.0163168991
277 1 1 0.0 54.2824966826 6.1465961368 12.1075885254
278 1 1 0.0 54.3060241324 8.6034378809 12.1064211645
279 1 1 0.0 54.3075760877 11.0615347558 11.9812399268
280 1 1 0.0 54.2831650656 13.5240518116 11.9744998869
281 1 1 0.0 55.684285297 1.2395910285 12.0039371004
282 1 1 0.0 55.689440348 3.6704854985 11.9777851604
283 1 1 0.0 55.702106791 6.1258935715 12.0404753114
284 1 1 0.0 55.7266063665 8.5900587269 12.0471214678
285 1 1 0.0 55.7339303741 11.0635381184 11.9578420395
286 1 1 0.0 55.7152521883 13.542299676 11.9230530118
287 1 1 0.0 56.4223632125 14.7777362698 11.9316825178
288 1 1 0.0 56.4180238225 2.453957188 11.9728561285
289 1 1 0.0 56.4156653135 4.895183019 11.9950046086
290 1 1 0.0 56.4222593027 7.3506730425 11.9638354844
291 1 1 0.0 56.4399077365 9.8246010709 11.946902072
292 1 1 0.0 56.4290499426 12.3054088398 11.9021786995
293 1 1 0.0 57.8461592647 14.7417814176 11.88748129
294 1 1 0.0 57.845376444 2.4289016649 11.9342299175
295 1 1 0.0 57.8398789039 4.8778296627 11.934503095
296 1 1 0.0 57.8402621441 7.3431789344 11.8084080959
297 1 1 0.0 57.8627674769 9.8194596208 11.8458149506
298 1 1 0.0 57.8506016039 12.2901159369 11.8755750375
299 1 1 0.0 58.5651418638 1.2061702939 11.890420705
300 1 1 0.0 58.5645340438 3.6548312436 11.9109156735
301 1 1 0.0 58.5560738706 6.110734973 11.869082328
302 1 1 0.0 58.5605454967 8.5803763944 11.760146806
303 1 1 0.0 58.5632675287 11.0580363781 11.8543232313
304 1 1 0.0 58.5661477626 13.5165727342 11.8459051933
305 1 1 0.0 59.983883 1.2299508 11.8000002
306 1 1 0.0 59.983883 3.6900001 11.8000002
307 1 1 0.0 59.983883 6.1500492 11.8000002
308 1 1 0.0 59.983883 8.609951 11.8000002
309 1 1 0.0 59.983883 11.0699997 11.8000002
310 1 1 0.0 59.983883 13.5300493 11.8000002
311 1 1 0.0 60.6935501 0.0 11.8000002
312 1 1 0.0 60.6935501 2.4600492 11.8000002
313 1 1 0.0 60.6935501 4.919951 11.8000002
314 1 1 0.0 60.6935501 7.3800001 11.8000002
315 1 1 0.0 60.6935501 9.8400498 11.8000002
316 1 1 0.0 60.6935501 12.2999506 11.8000002
317 1 1 0.0 62.1141625 0.0 11.8000002
318 1 1 0.0 62.1141625 2.4600492 11.8000002
319 1 1 0.0 62.1141625 4.919951 11.8000002
320 1 1 0.0 62.1141625 7.3800001 11.8000002
321 1 1 0.0 62.1141625 9.8400498 11.8000002
322 1 1 0.0 62.1141625 12.2999506 11.8000002
323 1 1 0.0 62.8244667 1.2299508 11.8000002
324 1 1 0.0 62.8244667 3.6900001 11.8000002
325 1 1 0.0 62.8244667 6.1500492 11.8000002
326 1 1 0.0 62.8244667 8.609951 11.8000002
327 1 1 0.0 62.8244667 11.0699997 11.8000002
328 1 1 0.0 62.8244667 13.5300493 11.8000002
