# LAMMPS data file written by OVITO Pro 3.5.4
328 atoms
2 atom types
0.0 63.5335007 xlo xhi
0.0 14.7600003 ylo yhi
0.0 25.0 zlo zhi

Masses

1 12.0107  # C
2 1.00794  # H

Atoms  # full

1 1 1 0.0 0.7103046 1.2299508 11.8000002
2 1 1 0.0 0.7103046 3.6900001 11.8000002
3 1 1 0.0 0.7103046 6.1500492 11.8000002
4 1 1 0.0 0.7103046 8.609951 11.8000002
5 1 1 0.0 0.7103046 11.0699997 11.8000002
6 1 1 0.0 0.7103046 13.5300493 11.8000002
7 1 1 0.0 1.4199738 0.0 11.8000002
8 1 1 0.0 1.4199738 2.4600492 11.8000002
9 1 1 0.0 1.4199738 4.919951 11.8000002
10 1 1 0.0 1.4199738 7.3800001 11.8000002
11 1 1 0.0 1.4199738 9.8400498 11.8000002
12 1 1 0.0 1.4199738 12.2999506 11.8000002
13 1 1 0.0 2.8405832 0.0 11.8000002
14 1 1 0.0 2.8405832 2.4600492 11.8000002
15 1 1 0.0 2.8405832 4.919951 11.8000002
16 1 1 0.0 2.8405832 7.3800001 11.8000002
17 1 1 0.0 2.8405832 9.8400498 11.8000002
18 1 1 0.0 2.8405832 12.2999506 11.8000002
19 1 1 0.0 3.5508874 1.2299508 11.8000002
20 1 1 0.0 3.5508874 3.6900001 11.8000002
21 1 1 0.0 3.5508874 6.1500492 11.8000002
22 1 1 0.0 3.5508874 8.609951 11.8000002
23 1 1 0.0 3.5508874 11.0699997 11.8000002
24 1 1 0.0 3.5508874 13.5300493 11.8000002
25 1 1 0.0 4.9667347026 1.2302451514 11.7226821426
26 1 1 0.0 4.9748270257 3.7071184989 11.7703741462
27 1 1 0.0 4.9766040817 6.1663591439 11.7279760725
28 1 1 0.0 4.9752963849 8.5999406034 11.7286533818
29 1 1 0.0 4.9838791206 11.052842023 11.8274205621
30 1 1 0.0 4.9838352906 13.5183043317 11.7835333613
31 1 1 0.0 5.6918547134 -0.0020074655 11.6886581597
32 1 1 0.0 5.6741644174 2.4652288955 11.7096187135
33 1 1 0.0 5.6886191457 4.9429612752 11.758139606
34 1 1 0.0 5.6944252133 7.3856530074 11.6171112479
35 1 1 0.0 5.703077592 9.8231110797 11.7278166148
36 1 1 0.0 5.7031118797 12.2779324755 11.7908735694
37 1 1 0.0 7.1145341882 -0.0176897011 11.6066160256
38 1 1 0.0 7.0942168325 2.4479982388 11.6540412867
39 1 1 0.0 7.1071779217 4.9295430246 11.6631528952
40 1 1 0.0 7.1176814223 7.3958184418 11.489463654
41 1 1 0.0 7.1286059327 9.8446354127 11.6356812497
42 1 1 0.0 7.1214276716 12.2768760966 11.6624036258
43 1 1 0.0 7.8036545389 1.2239188951 11.5518282253
44 1 1 0.0 7.8073619259 3.6850987956 11.6686577098
45 1 1 0.0 7.8341504915 6.1542980731 11.5244178254
46 1 1 0.0 7.8411501073 8.62340531 11.5371926677
47 1 1 0.0 7.8512416643 11.06332685 11.5990635676
48 1 1 0.0 7.8257880048 13.5122094247 11.5727573721
49 1 1 0.0 9.2239853927 1.2405528265 11.4886915671
50 1 1 0.0 9.2359175466 3.7035020351 11.6396119476
51 1 1 0.0 9.2660385581 6.1590913442 11.5238179929
52 1 1 0.0 9.2571527989 8.6198908369 11.5210093044
53 1 1 0.0 9.2791611644 11.0722392768 11.5538268847
54 1 1 0.0 9.2477843997 13.5358708998 11.501059665
55 1 1 0.0 9.9498002292 0.0172924359 11.5192789879
56 1 1 0.0 9.9442142729 2.4695172604 11.5746864264
57 1 1 0.0 9.9761143711 4.9279228855 11.6020055791
58 1 1 0.0 9.9691687749 7.3931611048 11.5562245077
59 1 1 0.0 9.9910924956 9.8390655544 11.5528070149
60 1 1 0.0 9.9806050667 12.3155498974 11.5637821827
61 1 1 0.0 11.3753729224 0.0229409408 11.5826553426
62 1 1 0.0 11.3721691276 2.5010067686 11.5510575929
63 1 1 0.0 11.3979361311 4.9555637491 11.5894786514
64 1 1 0.0 11.3862279974 7.4143318149 11.6327996422
65 1 1 0.0 11.4081127025 9.8568486495 11.6828698429
66 1 1 0.0 11.3998313275 12.3321730522 11.6684424909
67 1 1 0.0 12.072791501 1.2610030578 11.6166638831
68 1 1 0.0 12.1070080349 3.7279348293 11.5653488782
69 1 1 0.0 12.1008736412 6.1885838908 11.6613580734
70 1 1 0.0 12.1161275262 8.6255357323 11.7102740883
71 1 1 0.0 12.1043578039 11.097820679 11.7739864838
72 1 1 0.0 12.1062951822 13.5607616994 11.6985967597
73 1 1 0.0 13.4991006086 1.26228539 11.7576822531
74 1 1 0.0 13.521771354 3.7270953686 11.7232613018
75 1 1 0.0 13.5049056555 6.1953387256 11.8020886994
76 1 1 0.0 13.5253075912 8.6275997238 11.8954099334
77 1 1 0.0 13.5200917544 11.0960247275 11.9447819001
78 1 1 0.0 13.5248217685 13.557211937 11.873477144
79 1 1 0.0 14.2080015424 0.0373046058 11.9255130072
80 1 1 0.0 14.2081107652 2.4876685582 11.8552666811
81 1 1 0.0 14.2198852745 4.9593995184 11.8797592511
82 1 1 0.0 14.2234237691 7.4026253443 11.957277783
83 1 1 0.0 14.2124561397 9.8567641854 12.0471230127
84 1 1 0.0 14.2288448053 12.3323844242 12.0185003579
85 1 1 0.0 15.5959022707 0.0208178182 12.2742457594
86 1 1 0.0 15.5922105949 2.4776342252 12.2005693762
87 1 1 0.0 15.5931088559 4.9136845523 12.2415112061
88 1 1 0.0 15.6192391322 7.3714615091 12.2305391501
89 1 1 0.0 15.6080442265 9.8313265652 12.3275916834
90 1 1 0.0 15.6199924551 12.3093164179 12.3355417852
91 1 1 0.0 16.2897151764 1.2498681132 12.4178026688
92 1 1 0.0 16.3128362464 3.6854918741 12.3753993128
93 1 1 0.0 16.3063693115 6.1325789841 12.4042577232
94 1 1 0.0 16.3101953316 8.5959867701 12.4358721984
95 1 1 0.0 16.3102465355 11.0676565263 12.4842059987
96 1 1 0.0 16.305069467 13.5590987597 12.4728429765
97 1 1 0.0 17.6877723961 1.2590568401 12.7107521332
98 1 1 0.0 17.7118674615 3.7066277243 12.6276704593
99 1 1 0.0 17.7087343994 6.1663446924 12.6898086404
100 1 1 0.0 17.7130528514 8.6192360807 12.7159520666
101 1 1 0.0 17.7183121358 11.0980305146 12.7366307129
102 1 1 0.0 17.7098829215 13.5693897846 12.7252002164
103 1 1 0.0 18.4055355957 0.0400540802 12.8800031701
104 1 1 0.0 18.4205930352 2.4755106856 12.7625430721
105 1 1 0.0 18.4169387891 4.9373401321 12.7882229135
106 1 1 0.0 18.4137133516 7.3883773772 12.8735664674
107 1 1 0.0 18.409643435 9.8606908637 12.843131836
108 1 1 0.0 18.4108110715 12.3420258374 12.8179109225
109 1 1 0.0 19.8225158018 0.0445093745 13.0647701757
110 1 1 0.0 19.8342176878 2.5065997378 12.9539015253
111 1 1 0.0 19.834654031 4.9477238181 13.0115822169
112 1 1 0.0 19.8218136123 7.4044838821 13.105391329
113 1 1 0.0 19.8075722805 9.8620477125 13.0841203682
114 1 1 0.0 19.8163321765 12.3486948453 13.0554543104
115 1 1 0.0 20.5333045197 1.2691748435 13.0926942418
116 1 1 0.0 20.5584918115 3.7249149538 13.1196658657
117 1 1 0.0 20.5322179599 6.1746849134 13.1641652962
118 1 1 0.0 20.5187809243 8.635156149 13.2275169554
119 1 1 0.0 20.4916707798 11.1043898544 13.2033731431
120 1 1 0.0 20.5284759023 13.5750518371 13.1378175449
121 1 1 0.0 21.9471541701 1.2749668002 13.2826897769
122 1 1 0.0 21.9655514735 3.7505242502 13.3310777249
123 1 1 0.0 21.9404663218 6.1869536383 13.3841412256
124 1 1 0.0 21.925288298 8.6542636416 13.4585113689
125 1 1 0.0 21.8949300901 11.114648991 13.3942191249
126 1 1 0.0 21.9374463583 13.5753463312 13.3572632785
127 1 1 0.0 22.6465909241 0.0476196412 13.4433448146
128 1 1 0.0 22.6516928157 2.5059652177 13.4138950288
129 1 1 0.0 22.6794216814 4.9813716404 13.4547790719
130 1 1 0.0 22.6123075732 7.4194644277 13.5726509215
131 1 1 0.0 22.6152807868 9.895318421 13.5134873432
132 1 1 0.0 22.5986592409 12.3379336657 13.4767546958
133 1 1 0.0 24.0571966438 0.0593109486 13.6440904463
134 1 1 0.0 24.0586753286 2.5213671982 13.6377984409
135 1 1 0.0 24.0740733372 4.9780709149 13.7655089207
136 1 1 0.0 24.0059868763 7.4211639371 13.8582815419
137 1 1 0.0 24.0094665686 9.8837577183 13.7890194094
138 1 1 0.0 23.9902082581 12.3681415022 13.7197704574
139 1 1 0.0 24.7260102167 1.2964826092 13.6581320618
140 1 1 0.0 24.7240962539 3.7481346493 13.8249461218
141 1 1 0.0 24.712596284 6.223443419 13.9874135631
142 1 1 0.0 24.6629055688 8.6597889378 13.9465663354
143 1 1 0.0 24.6370138923 11.1285653926 13.8467178144
144 1 1 0.0 24.6669014271 13.584917252 13.8618762639
145 1 2 0.0 25.8097711559 1.3100415834 13.6703611717
146 1 2 0.0 25.8171895896 3.7301831789 14.017590073
147 1 2 0.0 25.7670362129 8.6322318014 14.0813549572
148 1 2 0.0 25.7058873458 11.1432163557 14.1054482784
149 1 2 0.0 25.703085982 13.5782249557 14.2154368278
150 1 2 0.0 26.2656726075 6.9564912075 15.3377259946
151 1 1 0.0 26.1527037065 6.2992706523 14.4700389133
152 1 2 0.0 26.4784508243 5.3021550034 14.7954757428
153 1 2 0.0 26.7816863552 7.7855330782 12.9680749621
154 1 1 0.0 27.1226124596 6.8091573937 13.3441731186
155 1 2 0.0 27.0949163079 6.1187035442 12.5020043692
156 1 2 0.0 28.8677218389 7.9797025537 13.9151444853
157 1 1 0.0 28.5820844024 6.9281000493 13.8468508141
158 1 2 0.0 28.6265610745 6.4888064218 14.845781278
159 1 2 0.0 29.2355438529 6.1420179765 11.9303705862
160 1 1 0.0 29.6311032059 6.1860959314 12.9418873255
161 1 2 0.0 29.7826808287 5.1596449223 13.2906235372
162 1 2 0.0 30.9544782982 7.7599952872 13.6441451139
163 1 1 0.0 31.0068510061 6.9426466971 12.9170974623
164 1 2 0.0 31.1689570548 7.3743197936 11.9025427739
165 1 2 0.0 32.3218843245 5.2250639586 12.5586377861
166 1 1 0.0 32.2625821162 6.0494302214 13.2669357409
167 1 2 0.0 32.1016079832 5.6321966191 14.2654977504
168 1 2 0.0 33.5295697877 7.6630813331 13.9915156514
169 1 1 0.0 33.58687539 6.8500633071 13.2520615677
170 1 2 0.0 33.7371379876 7.3055862771 12.2607123314
171 1 1 0.0 34.7777084514 5.9189021774 13.5801649648
172 1 2 0.0 34.5591111802 4.9233657326 13.198223988
173 1 2 0.0 34.8386608807 5.8253568455 14.67098729
174 1 2 0.0 36.1799716766 7.4331052669 12.9084877479
175 1 1 0.0 36.1597743981 6.342487483 13.0277484038
176 1 2 0.0 36.330760278 5.9111469605 12.0496705051
177 1 2 0.0 37.0740137066 4.873368982 14.3075619195
178 1 2 0.0 37.1289078517 6.5016573877 14.9359070348
179 1 1 0.0 37.2661985338 5.9108613876 14.0138173001
180 1 2 0.0 37.7762425882 1.1693118899 13.6724735867
181 1 2 0.0 37.7641372142 3.5354260258 13.5428727535
182 1 2 0.0 37.7320045804 8.5631600731 13.7311792993
183 1 2 0.0 37.7818934746 10.9978610046 13.8076099342
184 1 2 0.0 37.7740842264 13.4599171974 13.7670355603
185 1 1 0.0 38.8600861952 1.1522438249 13.6043611227
186 1 1 0.0 38.8506455961 3.5860976787 13.4796848007
187 1 1 0.0 38.7456589914 6.0484748896 13.5723177978
188 1 1 0.0 38.8284711909 8.5289369103 13.6704012013
189 1 1 0.0 38.8727894921 10.9915463169 13.7448316471
190 1 1 0.0 38.8718210254 13.4526487338 13.728391885
191 1 1 0.0 39.5220484016 14.6885382735 13.6180619337
192 1 1 0.0 39.5174846818 2.3722044496 13.4354051846
193 1 1 0.0 39.4816059555 4.8363078634 13.4242621307
194 1 1 0.0 39.4609705075 7.2848987781 13.5704714085
195 1 1 0.0 39.5155938262 9.7548443441 13.6725062196
196 1 1 0.0 39.5301325684 12.2263940588 13.7169679096
197 1 1 0.0 40.9417001987 -0.0601585411 13.4768106772
198 1 1 0.0 40.9238345854 2.3930185102 13.2113730824
199 1 1 0.0 40.9000141203 4.8711029028 13.2281203289
200 1 1 0.0 40.9021291278 7.2917223871 13.4701644054
201 1 1 0.0 40.9294466685 9.7655051671 13.5425069422
202 1 1 0.0 40.9533919797 12.2355434807 13.5917497277
203 1 1 0.0 41.6309118789 1.1597135929 13.2433296021
204 1 1 0.0 41.6091469266 3.6347799542 13.1114008333
205 1 1 0.0 41.6380216834 6.088141532 13.2981035223
206 1 1 0.0 41.6220642729 8.5335203397 13.4806966822
207 1 1 0.0 41.6402357903 10.9954668521 13.5228569189
208 1 1 0.0 41.6585977728 13.4704016288 13.4527764251
209 1 1 0.0 43.0439131038 1.1528770996 13.1147348249
210 1 1 0.0 43.0292972914 3.629548379 13.0338628117
211 1 1 0.0 43.0566546286 6.1006899076 13.1867926435
212 1 1 0.0 43.0500191578 8.5422894939 13.3832797483
213 1 1 0.0 43.0509091172 11.011540266 13.3791461647
214 1 1 0.0 43.0643235146 13.4775224195 13.2537041417
215 1 1 0.0 43.7654659661 -0.0685049606 13.0558203585
216 1 1 0.0 43.7367631335 2.3882136368 13.0371699816
217 1 1 0.0 43.7438898258 4.8602144944 13.0439406587
218 1 1 0.0 43.7635937492 7.3329618728 13.2156097199
219 1 1 0.0 43.7549735732 9.7803225536 13.3264919832
220 1 1 0.0 43.7785227158 12.2394417883 13.2569097261
221 1 1 0.0 45.1794200272 14.7197039399 12.9617086707
222 1 1 0.0 45.1527814594 2.41003948 12.9720916668
223 1 1 0.0 45.1680692537 4.8866472043 12.9635235694
224 1 1 0.0 45.1872220915 7.3558832591 13.0793513521
225 1 1 0.0 45.1712394181 9.8099182198 13.1591029015
226 1 1 0.0 45.1889711352 12.2635916228 13.1089863509
227 1 1 0.0 45.8770891267 1.197914328 12.9301112498
228 1 1 0.0 45.8780525115 3.6510795019 12.9188205669
229 1 1 0.0 45.8698294338 6.1248810391 12.935725894
230 1 1 0.0 45.9003443802 8.582883308 13.0773055143
231 1 1 0.0 45.8807102524 11.0309378418 13.0432910774
232 1 1 0.0 45.8793473647 13.4881884831 12.930469545
233 1 1 0.0 47.2945903794 1.2195978061 12.7887406878
234 1 1 0.0 47.3010253252 3.6576270176 12.8259382071
235 1 1 0.0 47.2829942945 6.1218385563 12.7888711417
236 1 1 0.0 47.3127120866 8.5798280009 12.8863375515
237 1 1 0.0 47.2756222214 11.0393720566 12.8172492094
238 1 1 0.0 47.2818089269 13.4998840843 12.747218424
239 1 1 0.0 47.9762070214 14.7361877553 12.6882512535
240 1 1 0.0 48.0222542563 2.4419843692 12.7724776489
241 1 1 0.0 47.9902106197 4.890598592 12.72886825
242 1 1 0.0 47.9987161739 7.3441688963 12.7544187312
243 1 1 0.0 47.9870795425 9.8137776696 12.7375551832
244 1 1 0.0 47.9755200262 12.2676798563 12.7147706128
245 1 1 0.0 49.3861354438 14.7167683027 12.5841911687
246 1 1 0.0 49.4330570316 2.4175580023 12.6640061357
247 1 1 0.0 49.4018519286 4.882184109 12.5606128916
248 1 1 0.0 49.4008145745 7.3482153561 12.5442816828
249 1 1 0.0 49.3871576777 9.8150665214 12.5099188765
250 1 1 0.0 49.3871214746 12.2610271291 12.5474339447
251 1 1 0.0 50.09516944 1.1754582303 12.5302376676
252 1 1 0.0 50.1190017995 3.6497262813 12.5460487488
253 1 1 0.0 50.0930126506 6.1166301902 12.4114566886
254 1 1 0.0 50.0838526268 8.5812520092 12.4092918094
255 1 1 0.0 50.1012164565 11.0404684157 12.4335660146
256 1 1 0.0 50.080332092 13.480994435 12.5233494625
257 1 1 0.0 51.4982267458 1.1794122064 12.3558151331
258 1 1 0.0 51.5164111537 3.6534348953 12.3116931826
259 1 1 0.0 51.4940310466 6.1156397687 12.1852034676
260 1 1 0.0 51.4764608636 8.5760812938 12.1308496436
261 1 1 0.0 51.5022228656 11.0181298812 12.221042824
262 1 1 0.0 51.4954790169 13.4736259793 12.3881989615
263 1 1 0.0 52.2009974641 14.7096104368 12.3363384891
264 1 1 0.0 52.1995870278 2.405627828 12.2230760013
265 1 1 0.0 52.2070477634 4.8855010204 12.1560527344
266 1 1 0.0 52.1822858932 7.3437990302 12.0503056896
267 1 1 0.0 52.1953430279 9.795882905 12.0526322051
268 1 1 0.0 52.1933380587 12.2504876143 12.2043853601
269 1 1 0.0 53.6073619767 14.6957333123 12.1648642881
270 1 1 0.0 53.6089886496 2.4024630504 12.0685479893
271 1 1 0.0 53.6105115295 4.8776002057 11.9632557542
272 1 1 0.0 53.5961380196 7.3230200882 11.9218024909
273 1 1 0.0 53.6065057315 9.7813180936 11.9394771278
274 1 1 0.0 53.5963796848 12.2329409996 12.0010274428
275 1 1 0.0 54.3145010094 1.1693462334 12.0975962841
276 1 1 0.0 54.2995034915 3.6379196875 11.9413211233
277 1 1 0.0 54.3083422208 6.1044819756 11.8504394627
278 1 1 0.0 54.3167475064 8.5478765169 11.874439755
279 1 1 0.0 54.3038195872 11.0112719385 11.8908035263
280 1 1 0.0 54.2943082803 13.4688207069 12.0061539399
281 1 1 0.0 55.7284534075 1.19189109 11.9814196869
282 1 1 0.0 55.7155357573 3.6500751371 11.8896483442
283 1 1 0.0 55.7252088211 6.1057545408 11.7793015115
284 1 1 0.0 55.7374225618 8.5646712095 11.8032333979
285 1 1 0.0 55.7183556363 11.0273203618 11.8247206553
286 1 1 0.0 55.7105977059 13.4988108103 11.8835581356
287 1 1 0.0 56.4217231283 14.7253474636 11.8062123207
288 1 1 0.0 56.4307781795 2.4249204605 11.9326098362
289 1 1 0.0 56.4333241746 4.8736625199 11.8209287166
290 1 1 0.0 56.4458151941 7.3339616835 11.742698661
291 1 1 0.0 56.433707376 9.7998878565 11.7860022654
292 1 1 0.0 56.4169208944 12.2694449181 11.8072564226
293 1 1 0.0 57.8431280437 14.7407106271 11.7030375198
294 1 1 0.0 57.8458975959 2.4390480543 11.8668074285
295 1 1 0.0 57.8503335912 4.9004448636 11.8192553346
296 1 1 0.0 57.8645821014 7.3701180901 11.7050975295
297 1 1 0.0 57.8502151261 9.8233825295 11.7621358101
298 1 1 0.0 57.8412257744 12.27634831 11.7371377277
299 1 1 0.0 58.5576087187 1.2145758516 11.7779440361
300 1 1 0.0 58.5642483228 3.6708215449 11.8528170354
301 1 1 0.0 58.5659204476 6.1349747321 11.7470368531
302 1 1 0.0 58.5662572601 8.6058009749 11.7452499201
303 1 1 0.0 58.5636369304 11.0522586151 11.7458411531
304 1 1 0.0 58.5634252396 13.5081608907 11.7168862891
305 1 1 0.0 59.983883 1.2299508 11.8000002
306 1 1 0.0 59.983883 3.6900001 11.8000002
307 1 1 0.0 59.983883 6.1500492 11.8000002
308 1 1 0.0 59.983883 8.609951 11.8000002
309 1 1 0.0 59.983883 11.0699997 11.8000002
310 1 1 0.0 59.983883 13.5300493 11.8000002
311 1 1 0.0 60.6935501 0.0 11.8000002
312 1 1 0.0 60.6935501 2.4600492 11.8000002
313 1 1 0.0 60.6935501 4.919951 11.8000002
314 1 1 0.0 60.6935501 7.3800001 11.8000002
315 1 1 0.0 60.6935501 9.8400498 11.8000002
316 1 1 0.0 60.6935501 12.2999506 11.8000002
317 1 1 0.0 62.1141625 0.0 11.8000002
318 1 1 0.0 62.1141625 2.4600492 11.8000002
319 1 1 0.0 62.1141625 4.919951 11.8000002
320 1 1 0.0 62.1141625 7.3800001 11.8000002
321 1 1 0.0 62.1141625 9.8400498 11.8000002
322 1 1 0.0 62.1141625 12.2999506 11.8000002
323 1 1 0.0 62.8244667 1.2299508 11.8000002
324 1 1 0.0 62.8244667 3.6900001 11.8000002
325 1 1 0.0 62.8244667 6.1500492 11.8000002
326 1 1 0.0 62.8244667 8.609951 11.8000002
327 1 1 0.0 62.8244667 11.0699997 11.8000002
328 1 1 0.0 62.8244667 13.5300493 11.8000002
