# LAMMPS data file written by OVITO Pro 3.5.4
328 atoms
2 atom types
0.0 63.5335007 xlo xhi
0.0 14.7600003 ylo yhi
0.0 25.0 zlo zhi

Masses

1 12.0107  # C
2 1.00794  # H

Atoms  # full

1 1 1 0.0 0.7103046 1.2299508 11.8000002
2 1 1 0.0 0.7103046 3.6900001 11.8000002
3 1 1 0.0 0.7103046 6.1500492 11.8000002
4 1 1 0.0 0.7103046 8.609951 11.8000002
5 1 1 0.0 0.7103046 11.0699997 11.8000002
6 1 1 0.0 0.7103046 13.5300493 11.8000002
7 1 1 0.0 1.4199738 0.0 11.8000002
8 1 1 0.0 1.4199738 2.4600492 11.8000002
9 1 1 0.0 1.4199738 4.919951 11.8000002
10 1 1 0.0 1.4199738 7.3800001 11.8000002
11 1 1 0.0 1.4199738 9.8400498 11.8000002
12 1 1 0.0 1.4199738 12.2999506 11.8000002
13 1 1 0.0 2.8405832 0.0 11.8000002
14 1 1 0.0 2.8405832 2.4600492 11.8000002
15 1 1 0.0 2.8405832 4.919951 11.8000002
16 1 1 0.0 2.8405832 7.3800001 11.8000002
17 1 1 0.0 2.8405832 9.8400498 11.8000002
18 1 1 0.0 2.8405832 12.2999506 11.8000002
19 1 1 0.0 3.5508874 1.2299508 11.8000002
20 1 1 0.0 3.5508874 3.6900001 11.8000002
21 1 1 0.0 3.5508874 6.1500492 11.8000002
22 1 1 0.0 3.5508874 8.609951 11.8000002
23 1 1 0.0 3.5508874 11.0699997 11.8000002
24 1 1 0.0 3.5508874 13.5300493 11.8000002
25 1 1 0.0 4.9869459125 1.2744899127 11.8240344242
26 1 1 0.0 4.971097175 3.7403379909 11.7614429549
27 1 1 0.0 4.9697965341 6.1843508197 11.770167533
28 1 1 0.0 4.9761444057 8.6482982611 11.834092428
29 1 1 0.0 4.9861903112 11.0937844553 11.907316591
30 1 1 0.0 4.971611981 13.5725334514 11.8178843606
31 1 1 0.0 5.7131648851 0.0394396597 11.824986841
32 1 1 0.0 5.6864131171 2.5218793052 11.8252518669
33 1 1 0.0 5.6897884518 4.964324466 11.7549792916
34 1 1 0.0 5.6768451684 7.4194630982 11.8150569819
35 1 1 0.0 5.7000234775 9.8692513326 11.905047861
36 1 1 0.0 5.683558409 12.3419185268 11.9387491825
37 1 1 0.0 7.1362064092 0.0634401564 11.9038232346
38 1 1 0.0 7.1097249177 2.5451949109 11.8636630718
39 1 1 0.0 7.1029840542 4.9860937569 11.8078704436
40 1 1 0.0 7.091475431 7.4234502891 11.9311423429
41 1 1 0.0 7.1092504675 9.8955399438 12.014742309
42 1 1 0.0 7.109120603 12.3654771453 12.0203922669
43 1 1 0.0 7.8178423398 1.3124183291 11.8473466151
44 1 1 0.0 7.8291084654 3.7684437169 11.8091884226
45 1 1 0.0 7.8131484149 6.2019461547 11.8762074967
46 1 1 0.0 7.7953929748 8.653889716 12.0523925358
47 1 1 0.0 7.8117981393 11.1325122965 12.0820289016
48 1 1 0.0 7.830379142 13.5878396596 12.0028511297
49 1 1 0.0 9.2371503252 1.2939916826 11.8748924018
50 1 1 0.0 9.249361594 3.7622586062 11.8391400823
51 1 1 0.0 9.2302130818 6.2098846737 11.9778772903
52 1 1 0.0 9.2169595108 8.6609342085 12.054911903
53 1 1 0.0 9.2281257822 11.1249872854 12.114930112
54 1 1 0.0 9.2583337313 13.601732144 12.0279911031
55 1 1 0.0 9.9549790265 0.0782569994 11.9906478104
56 1 1 0.0 9.9498098433 2.525046664 11.9273654329
57 1 1 0.0 9.9511755284 4.9896606912 11.9521509497
58 1 1 0.0 9.9419453693 7.4317683667 12.0936918522
59 1 1 0.0 9.9350687113 9.8889005498 12.0563521196
60 1 1 0.0 9.9514953722 12.3531866939 12.1147080602
61 1 1 0.0 11.3624382606 0.0674284736 12.1150928126
62 1 1 0.0 11.3646107754 2.5292819664 12.0761350746
63 1 1 0.0 11.3653808362 4.9725949349 12.0628241178
64 1 1 0.0 11.3669389689 7.4235004561 12.1693458745
65 1 1 0.0 11.3526929384 9.8888653142 12.1368825624
66 1 1 0.0 11.3715481818 12.3564685906 12.2166029871
67 1 1 0.0 12.0691015711 1.3000800062 12.1419233317
68 1 1 0.0 12.0795877921 3.7499586594 12.1594616742
69 1 1 0.0 12.0897718939 6.195049197 12.1350533469
70 1 1 0.0 12.0713636133 8.6612198999 12.1944084158
71 1 1 0.0 12.0764997796 11.1149929356 12.2456496278
72 1 1 0.0 12.0894034208 13.6019757238 12.2325734681
73 1 1 0.0 13.4814365262 1.2812859731 12.3349311719
74 1 1 0.0 13.4919879286 3.7357007833 12.3435238167
75 1 1 0.0 13.5061996582 6.1905066324 12.2147714485
76 1 1 0.0 13.4889281399 8.6539888707 12.2812299596
77 1 1 0.0 13.4998226319 11.1215159022 12.3519108416
78 1 1 0.0 13.5203325371 13.5738231726 12.3584474767
79 1 1 0.0 14.2163705202 0.0644592932 12.4080039034
80 1 1 0.0 14.193798365 2.5082583201 12.4577654119
81 1 1 0.0 14.2137111797 4.964536606 12.3443615356
82 1 1 0.0 14.2017218272 7.4243245294 12.3189844378
83 1 1 0.0 14.1980497224 9.8848627274 12.402130091
84 1 1 0.0 14.2118052587 12.3380069747 12.4587975728
85 1 1 0.0 15.6126728595 0.0808045133 12.6457034354
86 1 1 0.0 15.6108223359 2.5241152183 12.5845102791
87 1 1 0.0 15.6155982916 4.9564085245 12.557924183
88 1 1 0.0 15.5992388494 7.4365562964 12.5533663341
89 1 1 0.0 15.605432519 9.8974471945 12.6213671995
90 1 1 0.0 15.6127509416 12.3641018162 12.6708928991
91 1 1 0.0 16.3310130185 1.3047582371 12.6854952697
92 1 1 0.0 16.3472536246 3.7451446724 12.6420119361
93 1 1 0.0 16.2981006036 6.1970143699 12.6427543584
94 1 1 0.0 16.3126045381 8.6669207942 12.6728312331
95 1 1 0.0 16.3118444633 11.1289602025 12.7653968986
96 1 1 0.0 16.3095530551 13.6041279264 12.7621751131
97 1 1 0.0 17.7458772997 1.2941773762 12.8113115792
98 1 1 0.0 17.7594229927 3.7427802428 12.7817529387
99 1 1 0.0 17.7162696101 6.2018218295 12.7868605923
100 1 1 0.0 17.7279503365 8.6833746199 12.8332081468
101 1 1 0.0 17.7240516759 11.1475086408 12.8810756077
102 1 1 0.0 17.7161088123 13.5995022714 12.9152718626
103 1 1 0.0 18.4356292754 0.0603610376 12.9606193359
104 1 1 0.0 18.473261157 2.5234566524 12.8425324796
105 1 1 0.0 18.4567030702 4.9788863829 12.8280439857
106 1 1 0.0 18.4153185027 7.4398630755 12.8791565336
107 1 1 0.0 18.4371209165 9.912482846 12.9486854503
108 1 1 0.0 18.4291535526 12.3746394188 12.9976258299
109 1 1 0.0 19.8469155616 0.0756019665 13.1525636399
110 1 1 0.0 19.882214989 2.5407104423 12.9900918595
111 1 1 0.0 19.8808122449 5.0073104373 12.8829121381
112 1 1 0.0 19.8430381389 7.4657050409 12.9796950489
113 1 1 0.0 19.843478696 9.9148491232 13.1434244984
114 1 1 0.0 19.8331255407 12.3778991212 13.1783219019
115 1 1 0.0 20.5652361121 1.3096692286 13.1559582651
116 1 1 0.0 20.5963420135 3.7748990417 13.0024854111
117 1 1 0.0 20.5862288271 6.2469092505 12.9359993991
118 1 1 0.0 20.5603432242 8.6869377201 13.1507145861
119 1 1 0.0 20.5514533874 11.1557259227 13.2292548259
120 1 1 0.0 20.5415088952 13.6022633624 13.2897896538
121 1 1 0.0 21.9663954236 1.3464119043 13.3657124964
122 1 1 0.0 22.0002433358 3.806290122 13.22392822
123 1 1 0.0 22.0031020508 6.2585762366 13.1261961048
124 1 1 0.0 21.9977458816 8.7207553491 13.2523204879
125 1 1 0.0 21.9695927565 11.1722457291 13.3220505938
126 1 1 0.0 21.9492862972 13.6377303211 13.4191912822
127 1 1 0.0 22.6514670786 0.1095417524 13.500590059
128 1 1 0.0 22.6846611521 2.5809180115 13.3710109422
129 1 1 0.0 22.7207190895 5.0398627421 13.2873795775
130 1 1 0.0 22.7266578958 7.4735193401 13.2810206897
131 1 1 0.0 22.7017201789 9.95140958 13.344444162
132 1 1 0.0 22.6676798233 12.4069885732 13.4572355413
133 1 1 0.0 24.0672722587 0.1265823664 13.7055737051
134 1 1 0.0 24.0964972829 2.596128261 13.5276702837
135 1 1 0.0 24.1404272791 5.0535516148 13.4892596843
136 1 1 0.0 24.1486617487 7.5038218869 13.5479353352
137 1 1 0.0 24.1078345112 9.9786028901 13.5906038389
138 1 1 0.0 24.0676209301 12.4379927605 13.6575906548
139 1 1 0.0 24.7238178985 1.3637436458 13.7161116584
140 1 1 0.0 24.7827536624 3.8116694904 13.590801347
141 1 1 0.0 24.8302927113 6.2742003796 13.6910222052
142 1 1 0.0 24.7690276887 8.74950864 13.7104131048
143 1 1 0.0 24.7275467238 11.2189932646 13.7480264558
144 1 1 0.0 24.7139751118 13.6550932118 13.832941002
145 1 2 0.0 25.8000519054 1.3759676025 13.8795985896
146 1 2 0.0 25.8549942365 3.8150381806 13.7958533487
147 1 2 0.0 25.8358238561 8.7623379825 13.9854712334
148 1 2 0.0 25.7837900598 11.2495562337 13.96805894
149 1 2 0.0 25.7820619125 13.6508083668 14.0599670983
150 1 2 0.0 26.3633374043 7.1663575795 14.8921048415
151 1 1 0.0 26.2289936176 6.2329889692 14.3425932855
152 1 2 0.0 26.2367524534 5.4305036483 15.0760744539
153 1 2 0.0 27.4876118655 6.9531237815 12.7358842321
154 1 1 0.0 27.4146816275 6.0690731609 13.3621492048
155 1 2 0.0 27.2622135356 5.1985093096 12.7076772094
156 1 2 0.0 28.8370283806 6.7283202166 14.8625139147
157 1 1 0.0 28.7627107709 5.8977713308 14.1563407502
158 1 2 0.0 28.7134334034 4.9671220731 14.7329652389
159 1 2 0.0 29.9954899627 6.7103857869 12.5809742025
160 1 1 0.0 30.05097799 5.9102695783 13.3074955785
161 1 2 0.0 30.1267469677 4.9691417722 12.758498268
162 1 2 0.0 31.2533536184 5.5977887424 15.1012149767
163 1 1 0.0 31.3630649 6.1039454233 14.1590959768
164 1 2 0.0 31.5047184931 7.1726818041 14.3670843146
165 1 2 0.0 32.3519813057 5.5173527514 12.3312646618
166 1 1 0.0 32.5933231377 5.5354165026 13.394164771
167 1 2 0.0 32.7560809067 4.5039444327 13.7138144338
168 1 2 0.0 33.7560505796 7.1158311079 14.3500780754
169 1 1 0.0 33.915542841 6.3325521798 13.611984417
170 1 2 0.0 34.2072449572 6.8058511154 12.67831054
171 1 1 0.0 35.0679589343 5.4307788686 14.0959479499
172 1 2 0.0 34.939553928 4.4234263382 13.6998974211
173 1 2 0.0 35.0935698916 5.3439201431 15.1927259954
174 1 2 0.0 36.3306598937 6.9590165074 13.1893592908
175 1 1 0.0 36.4582080625 5.9613559725 13.6251096983
176 1 2 0.0 36.8441301307 5.2906979063 12.8447528865
177 1 2 0.0 37.3792928413 5.1461944621 15.3870793622
178 1 2 0.0 37.2838588402 6.8939514589 15.3838415089
179 1 1 0.0 37.4943401248 6.0294368235 14.7605711486
180 1 2 0.0 37.899759601 1.1929467085 14.4962231798
181 1 2 0.0 37.8950446006 3.6333129371 14.4859998615
182 1 2 0.0 37.9095452838 8.6057197047 14.4924311024
183 1 2 0.0 37.8489605338 11.0086165139 14.3552766083
184 1 2 0.0 37.868452514 13.4507912249 14.4105977432
185 1 1 0.0 38.9574389182 1.186224514 14.2199699053
186 1 1 0.0 38.9449067751 3.635625263 14.169504403
187 1 1 0.0 38.9230836226 6.1023410128 14.2082125736
188 1 1 0.0 38.9430153211 8.5882805618 14.1141020672
189 1 1 0.0 38.8950520488 11.0198926214 14.0403162473
190 1 1 0.0 38.9253029069 13.4733203977 14.1244795001
191 1 1 0.0 39.5632055007 14.7077410982 14.0267489713
192 1 1 0.0 39.6094983367 2.4120336999 14.0666126015
193 1 1 0.0 39.569498152 4.8739975971 13.9506416645
194 1 1 0.0 39.5581389151 7.3380106821 13.948665061
195 1 1 0.0 39.5664413665 9.8079949543 13.8392100855
196 1 1 0.0 39.5501107249 12.2424703838 13.8832970155
197 1 1 0.0 40.944817036 -0.0558130234 13.6838905791
198 1 1 0.0 40.9914870471 2.4207109017 13.7379165598
199 1 1 0.0 40.9360840751 4.884122777 13.5830847878
200 1 1 0.0 40.9098547349 7.336111314 13.5088210644
201 1 1 0.0 40.9451896974 9.7907133804 13.4793927258
202 1 1 0.0 40.9317992678 12.2347898804 13.5162793667
203 1 1 0.0 41.6544650354 1.1756373325 13.5766652411
204 1 1 0.0 41.6314567845 3.6532628744 13.4970662885
205 1 1 0.0 41.6139487472 6.1109935281 13.3987725365
206 1 1 0.0 41.6104243334 8.5517277612 13.2990733751
207 1 1 0.0 41.6433155689 11.0193398131 13.3162728718
208 1 1 0.0 41.6254551122 13.476542932 13.4745396202
209 1 1 0.0 43.0455226068 1.1830605435 13.2831948846
210 1 1 0.0 43.0126680684 3.6590501982 13.2170338886
211 1 1 0.0 43.0212746365 6.115000076 13.2154984887
212 1 1 0.0 43.0173430482 8.5570961135 13.0389618544
213 1 1 0.0 43.0354886471 11.016556387 13.0534310504
214 1 1 0.0 43.025410284 13.4735310223 13.2098724168
215 1 1 0.0 43.7249331152 -0.0539362438 13.126494952
216 1 1 0.0 43.7144058199 2.4287717096 13.1305601053
217 1 1 0.0 43.7173941072 4.8839429579 13.1615339659
218 1 1 0.0 43.7288298365 7.3355325451 13.0427585304
219 1 1 0.0 43.7203546814 9.7822315564 12.8825914729
220 1 1 0.0 43.727016875 12.2554585582 13.0338991587
221 1 1 0.0 45.1226829579 14.7348926365 12.9259531535
222 1 1 0.0 45.1313003091 2.4486854161 12.9571964649
223 1 1 0.0 45.1343433 4.9098037572 13.0276254029
224 1 1 0.0 45.1406684312 7.3525857821 12.8629737058
225 1 1 0.0 45.1292786161 9.8092105906 12.7146387363
226 1 1 0.0 45.12466484 12.2788981025 12.8563219345
227 1 1 0.0 45.8257167981 1.2077121697 12.8940345827
228 1 1 0.0 45.8376721804 3.6806448991 12.9358723501
229 1 1 0.0 45.8628296692 6.1204061021 12.9166250722
230 1 1 0.0 45.8459090198 8.5756109606 12.6811301217
231 1 1 0.0 45.8205373573 11.0553602265 12.6929337708
232 1 1 0.0 45.8364850797 13.5151502361 12.8310876968
233 1 1 0.0 47.2413534565 1.2157105716 12.7777702613
234 1 1 0.0 47.2563602267 3.6834983994 12.8078223764
235 1 1 0.0 47.279160466 6.1470779743 12.7306459813
236 1 1 0.0 47.2583502846 8.5894172632 12.5543485062
237 1 1 0.0 47.231440881 11.0672558111 12.5608693896
238 1 1 0.0 47.244569689 13.5119847453 12.7174290766
239 1 1 0.0 47.9509147234 14.7478195313 12.6989305146
240 1 1 0.0 47.9502986035 2.4511336426 12.7354812727
241 1 1 0.0 47.9812510171 4.9107085496 12.6999215032
242 1 1 0.0 47.9753137334 7.3632603297 12.5547573989
243 1 1 0.0 47.9307551548 9.829390404 12.494484158
244 1 1 0.0 47.9400064873 12.2940150521 12.5351966215
245 1 1 0.0 49.3666904627 14.7662756483 12.5452769521
246 1 1 0.0 49.3686954843 2.4746721141 12.5974791516
247 1 1 0.0 49.3873380292 4.928765706 12.5095067459
248 1 1 0.0 49.3820435472 7.3754816047 12.3942336397
249 1 1 0.0 49.3393338228 9.8409695763 12.2994689531
250 1 1 0.0 49.3469077053 12.3137631844 12.3208880321
251 1 1 0.0 50.072649014 1.2428547131 12.521939775
252 1 1 0.0 50.08028454 3.6959809342 12.4614394463
253 1 1 0.0 50.1055984846 6.152655693 12.3888354527
254 1 1 0.0 50.0576612409 8.6143377469 12.2599266863
255 1 1 0.0 50.0397658418 11.079476622 12.1960813374
256 1 1 0.0 50.0704122016 13.5463252808 12.3511378454
257 1 1 0.0 51.4845353725 1.2120690688 12.3445651585
258 1 1 0.0 51.4993244029 3.6709478689 12.3151495479
259 1 1 0.0 51.5187585573 6.1347386642 12.3056286949
260 1 1 0.0 51.47514366 8.6045939605 12.1208563979
261 1 1 0.0 51.4537580065 11.0822260337 12.0500883117
262 1 1 0.0 51.4840017391 13.5405944341 12.1851011313
263 1 1 0.0 52.2114057944 14.7591787048 12.2291404719
264 1 1 0.0 52.2022530598 2.4411908245 12.2584367749
265 1 1 0.0 52.219599308 4.9002040383 12.2804433314
266 1 1 0.0 52.2057450148 7.3787171373 12.1380347686
267 1 1 0.0 52.1752368094 9.8480765482 12.0729536433
268 1 1 0.0 52.1682028431 12.3143838107 12.0378288296
269 1 1 0.0 53.6393769803 14.7654372886 12.129639296
270 1 1 0.0 53.6273911854 2.4553241374 12.1663994732
271 1 1 0.0 53.6285421698 4.9087559356 12.1251767216
272 1 1 0.0 53.6288174493 7.3771466965 12.0354226125
273 1 1 0.0 53.5991347938 9.8436721114 12.0339652795
274 1 1 0.0 53.5824793737 12.3186003421 12.0001621028
275 1 1 0.0 54.3548334748 1.2336571981 12.1071790009
276 1 1 0.0 54.3347758919 3.6828832172 12.1050827939
277 1 1 0.0 54.3331617142 6.139926822 12.0094875939
278 1 1 0.0 54.3277016085 8.6182235226 11.9864129269
279 1 1 0.0 54.2916450491 11.0878101219 11.9827605747
280 1 1 0.0 54.3250366095 13.5252347682 12.0370704067
281 1 1 0.0 55.7669364993 1.2240317191 11.9893245689
282 1 1 0.0 55.7501186217 3.6997546815 12.0292114864
283 1 1 0.0 55.7492256438 6.1561556202 11.9063888689
284 1 1 0.0 55.7447688276 8.6162935422 11.8883636719
285 1 1 0.0 55.7143312975 11.0750026253 11.9152926235
286 1 1 0.0 55.747856153 13.5163691359 11.946755347
287 1 1 0.0 56.4593032301 14.7448069294 11.9045076057
288 1 1 0.0 56.4650671372 2.4722854414 11.9622564602
289 1 1 0.0 56.4640666544 4.9319262498 11.9454037549
290 1 1 0.0 56.4495037971 7.3821300791 11.8390807106
291 1 1 0.0 56.432540135 9.8563632201 11.8832951695
292 1 1 0.0 56.4424895233 12.2890134172 11.8608184562
293 1 1 0.0 57.868840433 14.7544076125 11.8001394876
294 1 1 0.0 57.8755713646 2.4669731413 11.8416040222
295 1 1 0.0 57.8824171668 4.9235300593 11.8749074955
296 1 1 0.0 57.8690480791 7.3781998671 11.8188665309
297 1 1 0.0 57.8485263121 9.8379529727 11.8405533859
298 1 1 0.0 57.8573213986 12.2827812559 11.7664625029
299 1 1 0.0 58.5682128416 1.2323769467 11.7909691597
300 1 1 0.0 58.5700780806 3.6923052535 11.8049439859
301 1 1 0.0 58.5737502026 6.1522542575 11.8261109272
302 1 1 0.0 58.5651172895 8.6112829107 11.8575898403
303 1 1 0.0 58.5655562288 11.0524732292 11.7714678941
304 1 1 0.0 58.5683756555 13.5154064471 11.7594622122
305 1 1 0.0 59.983883 1.2299508 11.8000002
306 1 1 0.0 59.983883 3.6900001 11.8000002
307 1 1 0.0 59.983883 6.1500492 11.8000002
308 1 1 0.0 59.983883 8.609951 11.8000002
309 1 1 0.0 59.983883 11.0699997 11.8000002
310 1 1 0.0 59.983883 13.5300493 11.8000002
311 1 1 0.0 60.6935501 0.0 11.8000002
312 1 1 0.0 60.6935501 2.4600492 11.8000002
313 1 1 0.0 60.6935501 4.919951 11.8000002
314 1 1 0.0 60.6935501 7.3800001 11.8000002
315 1 1 0.0 60.6935501 9.8400498 11.8000002
316 1 1 0.0 60.6935501 12.2999506 11.8000002
317 1 1 0.0 62.1141625 0.0 11.8000002
318 1 1 0.0 62.1141625 2.4600492 11.8000002
319 1 1 0.0 62.1141625 4.919951 11.8000002
320 1 1 0.0 62.1141625 7.3800001 11.8000002
321 1 1 0.0 62.1141625 9.8400498 11.8000002
322 1 1 0.0 62.1141625 12.2999506 11.8000002
323 1 1 0.0 62.8244667 1.2299508 11.8000002
324 1 1 0.0 62.8244667 3.6900001 11.8000002
325 1 1 0.0 62.8244667 6.1500492 11.8000002
326 1 1 0.0 62.8244667 8.609951 11.8000002
327 1 1 0.0 62.8244667 11.0699997 11.8000002
328 1 1 0.0 62.8244667 13.5300493 11.8000002
